
   42  0.0000000e+00
  -0.7200000   0.9600000   0.2200000  -1.4300000  -0.2700000   0.1800000
  -2.8100000  -0.3500000   0.2800000  -3.5200000   0.8600000   0.4300000
  -2.8100000   2.0900000   0.4700000  -1.4200000   2.1800000   0.3700000
   0.7000000   0.7800000   0.1000000   1.0800000  -0.5200000  -0.0300000
  -0.3000000  -1.6000000  -0.0100000  -4.9400000   1.0700000   0.5600000
  -5.2800000   2.3700000   0.6900000  -3.9200000   3.4300000   0.6600000
  -0.6800000   3.4800000   0.4200000  -3.5400000  -1.6600000   0.2400000
   2.4300000  -1.0300000  -0.1700000   2.8700000  -2.3300000  -0.3100000
   4.2800000  -2.4300000  -0.4200000   4.9300000  -1.2200000  -0.3800000
   3.7700000   0.0600000  -0.1900000   6.3600000  -0.8900000  -0.4600000
   7.3900000  -1.8900000  -0.6100000   8.7800000  -1.4900000  -0.6900000
   9.1500000  -0.1100000  -0.6000000   8.1500000   0.8000000  -0.4600000
   6.7900000   0.4200000  -0.3800000   7.2500000  -3.2100000  -0.7100000
   8.7300000  -3.8500000  -0.8700000   9.6300000  -2.5000000  -0.8300000
   1.4000000   1.6100000   0.1100000  -5.6700000   0.2600000   0.5500000
  -6.2800000   2.7800000   0.8000000  -0.1000000   3.6200000  -0.5000000
  -1.3600000   4.3300000   0.5300000   0.0300000   3.4900000   1.2500000
  -2.8500000  -2.5000000   0.1200000  -4.1200000  -1.8300000   1.1600000
  -4.2600000  -1.6900000  -0.5900000   2.2100000  -3.1800000  -0.3200000
   4.8400000  -3.3600000  -0.5300000  10.2000000   0.1700000  -0.6600000
   8.3900000   1.8600000  -0.3900000   6.0500000   1.2100000  -0.2700000
  21.4733000  13.1812000   7.1176000  90.0000000  90.0000000  90.0000000
