%VERSION  VERSION_STAMP = V0001.000  DATE = 03/24/26  14:51:18
%FLAG TITLE
%FORMAT(20a4)

%FLAG POINTERS
%FORMAT(10I8)
      42       9      14      33      28      50      47      87       0       0
     219       1      33      50      87      47      78      29       1       0
       0       0       0       0       0       0       0       1      42       0
       0
%FLAG ATOM_NAME
%FORMAT(20a4)
C   C1  C2  C3  C4  C5  C6  C7  S   C8  C9  S1  C10 C11 C12 C13 C14 C15 S2  C16 
C17 C18 C19 C20 C21 N   S3  N1  H   H1  H2  H3  H4  H5  H6  H7  H8  H9  H10 H11 
H12 H13 
%FLAG CHARGE
%FORMAT(5E16.8)
 -1.19902734E+00 -3.51690390E+00 -1.87689690E-01 -1.25369424E+00 -3.44401470E+00
 -1.69467390E-01 -3.32010306E+00  1.53067320E-01  2.63130012E+00 -3.30188076E+00
 -3.41485902E+00  2.21218722E+00 -1.01680434E+00 -1.01680434E+00 -3.53148174E+00
 -2.46001050E+00 -1.65822930E+00 -3.99068370E+00  5.97691440E+00  9.11115000E-01
 -1.16622720E+00 -1.36667250E+00 -1.22089410E+00 -1.74934080E+00 -1.94978610E+00
 -4.92913215E+00  9.58492980E+00 -5.03846595E+00  3.75379380E+00  3.73557150E+00
  4.00890600E+00  9.17802584E-01  9.17802584E-01  9.17802584E-01  9.23870610E-01
  9.23870610E-01  9.23870610E-01  2.60578890E+00  2.75156730E+00  2.53289970E+00
  2.25956520E+00  2.29600980E+00
%FLAG ATOMIC_NUMBER
%FORMAT(10I8)
       6       6       6       6       6       6       6       6      16       6
       6      16       6       6       6       6       6       6      16       6
       6       6       6       6       6       7      16       7       1       1
       1       1       1       1       1       1       1       1       1       1
       1       1
%FLAG MASS
%FORMAT(5E16.8)
  1.20110000E+01  1.20110000E+01  1.20110000E+01  1.20110000E+01  1.20110000E+01
  1.20110000E+01  1.20110000E+01  1.20110000E+01  3.20600000E+01  1.20110000E+01
  1.20110000E+01  3.20600000E+01  1.20110000E+01  1.20110000E+01  1.20110000E+01
  1.20110000E+01  1.20110000E+01  1.20110000E+01  3.20600000E+01  1.20110000E+01
  1.20110000E+01  1.20110000E+01  1.20110000E+01  1.20110000E+01  1.20110000E+01
  1.40070000E+01  3.20600000E+01  1.40070000E+01  1.00800000E+00  1.00800000E+00
  1.00800000E+00  1.00800000E+00  1.00800000E+00  1.00800000E+00  1.00800000E+00
  1.00800000E+00  1.00800000E+00  1.00800000E+00  1.00800000E+00  1.00800000E+00
  1.00800000E+00  1.00800000E+00
%FLAG ATOM_TYPE_INDEX
%FORMAT(10I8)
       1       1       1       1       1       1       2       3       4       2
       3       4       5       5       3       2       2       3       4       1
       1       1       1       1       1       6       4       6       7       7
       8       9       9       9       9       9       9       7       7       7
       7       7
%FLAG NUMBER_EXCLUDED_ATOMS
%FORMAT(10I8)
      16      15      14      13      12      11       7       8       5       5
       3       3       3       3       8       6       7      10       5      11
       9       8       8       5       4       2       1       1       1       1
       1       2       1       1       2       1       1       1       1       1
       1       1
%FLAG NONBONDED_PARM_INDEX
%FORMAT(10I8)
       1       2       4       7      11      16      22      29      37       2
       3       5       8      12      17      23      30      38       4       5
       6       9      13      18      24      31      39       7       8       9
      10      14      19      25      32      40      11      12      13      14
      15      20      26      33      41      16      17      18      19      20
      21      27      34      42      22      23      24      25      26      27
      28      35      43      29      30      31      32      33      34      35
      36      44      37      38      39      40      41      42      43      44
      45
%FLAG RESIDUE_LABEL
%FORMAT(20a4)
MOL 
%FLAG RESIDUE_POINTER
%FORMAT(10I8)
       1
%FLAG BOND_FORCE_CONSTANT
%FORMAT(5E16.8)
  3.07680298E+02  3.34902481E+02  2.83164455E+02  3.42986956E+02  1.73211644E+02
  3.29744792E+02  2.70189827E+02  3.11127985E+02  2.91952111E+02  3.47653125E+02
  1.85368194E+02  2.73540022E+02  5.02367996E+02  3.94892033E+02  1.82296991E+02
  2.84913085E+02  5.52397650E+02  3.93122257E+02  2.11777399E+02  4.14124648E+02
  3.59891910E+02  3.67689063E+02  3.59847143E+02  3.69058439E+02  3.59619919E+02
  3.59004747E+02  4.50571602E+02  2.07723128E+02  3.48708053E+02  3.97882902E+02
  4.23736879E+02  4.06777608E+02  1.96168843E+02  2.61567803E+02  3.13429507E+02
  4.15278535E+02  2.61193855E+02  4.36534485E+02  3.67279719E+02  4.15587291E+02
  4.98152824E+02  4.08128642E+02  3.31880829E+02  3.91885752E+02  3.92159461E+02
  2.47421042E+02  2.53821856E+02
%FLAG BOND_EQUIL_VALUE
%FORMAT(5E16.8)
  1.42120000E+00  1.40660000E+00  1.43470000E+00  1.39360000E+00  1.75610000E+00
  1.40900000E+00  1.50390000E+00  1.42180000E+00  1.44300000E+00  1.39260000E+00
  1.74650000E+00  1.50060000E+00  1.36220000E+00  1.08670000E+00  1.75530000E+00
  1.45610000E+00  1.35020000E+00  1.08640000E+00  1.73270000E+00  1.08290000E+00
  1.09640000E+00  1.09320000E+00  1.09640000E+00  1.09250000E+00  1.09720000E+00
  1.09720000E+00  1.37490000E+00  1.73220000E+00  1.41850000E+00  1.08480000E+00
  1.37710000E+00  1.08500000E+00  1.74190000E+00  1.46460000E+00  1.44180000E+00
  1.38220000E+00  1.44960000E+00  1.33090000E+00  1.42340000E+00  1.33310000E+00
  1.36040000E+00  1.08470000E+00  1.41850000E+00  1.08730000E+00  1.08480000E+00
  1.61860000E+00  1.61830000E+00
%FLAG ANGLE_FORCE_CONSTANT
%FORMAT(5E16.8)
  1.06545149E+02  9.34087076E+01  1.05986603E+02  8.59948420E+01  7.58750515E+01
  9.54045369E+01  6.77926777E+01  6.65511545E+01  6.70854089E+01  1.10726889E+02
  9.87959076E+01  8.85938205E+01  9.51995725E+01  9.11374122E+01  1.05142154E+02
  6.36165649E+01  6.35815270E+01  6.32734961E+01  6.65863409E+01  2.91945442E+01
  2.97593323E+01  7.24993406E+01  6.41682815E+01  6.16536451E+01  1.80770719E+02
  6.49480641E+01  3.05274337E+01  2.96089799E+01  6.85515115E+01  2.94965488E+01
  2.96353935E+01  1.35754544E+02  5.56797917E+01  4.23508242E+01  5.57395805E+01
  3.33028462E+01  2.99099794E+01  3.32022169E+01  4.25005633E+01  5.78068095E+01
  5.78807341E+01  3.25768223E+01  3.25770302E+01  2.83839477E+01  7.26042407E+01
  6.05485209E+01  6.91844849E+01  7.82189272E+01  2.90097795E+01  3.15846309E+01
  7.83722694E+01  3.37598472E+01  3.12352091E+01  7.23022090E+01  8.24260427E+01
  6.68216105E+01  1.04654167E+02  8.27381158E+01  7.83604528E+01  1.03787197E+02
  1.06004826E+02  7.98293990E+01  8.02310834E+01  7.72042040E+01  6.42956279E+01
  7.14962268E+01  9.80616658E+01  3.66448403E+01  3.71451807E+01  1.08582906E+02
  3.37647162E+01  3.49720551E+01  9.15866122E+01  3.11597287E+01  3.49512254E+01
  1.41450430E+02  7.19385123E+01  1.29358879E+02
%FLAG ANGLE_EQUIL_VALUE
%FORMAT(5E16.8)
  2.09795402E+00  1.95595288E+00  2.22927841E+00  2.14388576E+00  1.92363526E+00
  2.21566426E+00  2.04382028E+00  2.13188352E+00  2.10748149E+00  2.09139881E+00
  2.24542153E+00  1.94636497E+00  2.14948014E+00  1.92878205E+00  2.20492312E+00
  2.03983143E+00  2.10112979E+00  2.14222407E+00  1.99217452E+00  2.14200428E+00
  2.14900644E+00  1.94650297E+00  2.22402444E+00  2.11265779E+00  1.60651222E+00
  1.97562054E+00  2.15428353E+00  2.15328124E+00  1.97255342E+00  2.22530675E+00
  2.08532513E+00  1.60145698E+00  1.92926914E+00  1.95841729E+00  1.92955380E+00
  1.88879556E+00  1.86614433E+00  1.88859254E+00  1.93793251E+00  1.94010772E+00
  1.94001218E+00  1.88727257E+00  1.88739073E+00  1.86849304E+00  2.26542801E+00
  2.09171094E+00  1.92604618E+00  1.97844951E+00  2.14701256E+00  2.15772324E+00
  1.98397329E+00  2.18988894E+00  2.10932308E+00  1.91600882E+00  2.28434897E+00
  2.08282737E+00  1.62030003E+00  2.15123732E+00  2.10533425E+00  2.02661372E+00
  2.09510322E+00  2.23327708E+00  1.95480501E+00  2.10875567E+00  1.98584468E+00
  2.18858495E+00  2.05240854E+00  2.09284289E+00  2.13793386E+00  2.13245138E+00
  2.09659547E+00  2.05413845E+00  2.15103807E+00  2.07725574E+00  2.05489149E+00
  1.87620020E+00  1.75130777E+00  1.85662029E+00
%FLAG DIHEDRAL_FORCE_CONSTANT
%FORMAT(5E16.8)
  3.62500000E+00  5.85000000E-01  7.00000000E-01  4.00000000E-01 -2.40208891E-02
  6.25853489E-02 -3.85614006E-02  2.52228728E-02 -6.68858748E-02  4.16347992E-02
  2.59152247E-02  3.37455545E-02 -6.43500956E-02 -2.72052342E-02 -3.17116157E-02
  6.37418021E-02  4.00000000E+00  1.21500000E+00  3.47591276E-01  6.31681668E-01
  8.00102390E-01  1.24426491E+00  1.10000000E+00  2.43000000E+00  1.44683815E+00
  1.24052995E+00  6.38727749E-01  6.17979517E-01  4.80000000E+00
%FLAG DIHEDRAL_PERIODICITY
%FORMAT(5E16.8)
  2.00000000E+00  2.00000000E+00  2.00000000E+00  2.00000000E+00  1.00000000E+00
  1.00000000E+00  1.00000000E+00  1.00000000E+00  1.00000000E+00  1.00000000E+00
  1.00000000E+00  1.00000000E+00  1.00000000E+00  1.00000000E+00  1.00000000E+00
  1.00000000E+00  2.00000000E+00  2.00000000E+00  2.00000000E+00  2.00000000E+00
  2.00000000E+00  2.00000000E+00  2.00000000E+00  1.00000000E+00  2.00000000E+00
  2.00000000E+00  2.00000000E+00  2.00000000E+00  2.00000000E+00
%FLAG DIHEDRAL_PHASE
%FORMAT(5E16.8)
  3.14159265E+00  3.14159265E+00  3.14159265E+00  3.14159265E+00  0.00000000E+00
  0.00000000E+00  0.00000000E+00  0.00000000E+00  0.00000000E+00  0.00000000E+00
  0.00000000E+00  0.00000000E+00  0.00000000E+00  0.00000000E+00  0.00000000E+00
  0.00000000E+00  3.14159265E+00  0.00000000E+00  3.14159265E+00  3.14159265E+00
  3.14159265E+00  3.14159265E+00  3.14159265E+00  3.14159265E+00  3.14159265E+00
  3.14159265E+00  3.14159265E+00  3.14159265E+00  3.14159265E+00
%FLAG SCEE_SCALE_FACTOR
%FORMAT(5E16.8)
  1.20000000E+00  1.20000000E+00  1.20000000E+00  1.20000000E+00  1.20000000E+00
  1.20000000E+00  1.20000000E+00  1.20000000E+00  1.20000000E+00  1.20000000E+00
  1.20000000E+00  1.20000000E+00  1.20000000E+00  1.20000000E+00  1.20000000E+00
  1.20000000E+00  1.20000000E+00  1.20000000E+00  1.20000000E+00  1.20000000E+00
  1.20000000E+00  1.20000000E+00  1.20000000E+00  1.20000000E+00  1.20000000E+00
  1.20000000E+00  1.20000000E+00  1.20000000E+00  1.20000000E+00
%FLAG SCNB_SCALE_FACTOR
%FORMAT(5E16.8)
  2.00000000E+00  2.00000000E+00  2.00000000E+00  2.00000000E+00  2.00000000E+00
  2.00000000E+00  2.00000000E+00  2.00000000E+00  2.00000000E+00  2.00000000E+00
  2.00000000E+00  2.00000000E+00  2.00000000E+00  2.00000000E+00  2.00000000E+00
  2.00000000E+00  2.00000000E+00  2.00000000E+00  2.00000000E+00  2.00000000E+00
  2.00000000E+00  2.00000000E+00  2.00000000E+00  2.00000000E+00  2.00000000E+00
  2.00000000E+00  2.00000000E+00  2.00000000E+00  2.00000000E+00
%FLAG SOLTY
%FORMAT(5E16.8)
  0.00000000E+00
%FLAG LENNARD_JONES_ACOEF
%FORMAT(5E16.8)
  6.96551251E+05  6.96551251E+05  6.96551251E+05  6.96551251E+05  6.96551251E+05
  6.96551251E+05  1.73376815E+06  1.73376815E+06  1.73376815E+06  4.26366394E+06
  8.43969890E+05  8.43969890E+05  8.43969890E+05  2.09089878E+06  1.02073660E+06
  7.69642128E+05  7.69642128E+05  7.69642128E+05  1.90820503E+06  9.31115271E+05
  8.49322120E+05  7.52549099E+04  7.52549099E+04  7.52549099E+04  1.95762750E+05
  9.27554397E+04  8.43518916E+04  6.90855886E+03  6.27751731E+04  6.27751731E+04
  6.27751731E+04  1.64354286E+05  7.75673776E+04  7.05112219E+04  5.62610516E+03
  4.56536582E+03  8.12662389E+04  8.12662389E+04  8.12662389E+04  2.11783228E+05
  1.00235142E+05  9.11435436E+04  7.41026870E+03  6.02863260E+03  7.94617774E+03
%FLAG LENNARD_JONES_BCOEF
%FORMAT(5E16.8)
  5.24668518E+02  5.24668518E+02  5.24668518E+02  5.24668518E+02  5.24668518E+02
  5.24668518E+02  1.07629399E+03  1.07629399E+03  1.07629399E+03  2.19459217E+03
  5.90251906E+02  5.90251906E+02  5.90251906E+02  1.20800119E+03  6.63431700E+02
  5.44830051E+02  5.44830051E+02  5.44830051E+02  1.11546537E+03  6.12468584E+02
  5.65406797E+02  1.09570368E+02  1.09570368E+02  1.09570368E+02  2.29782879E+02
  1.24325682E+02  1.14599120E+02  2.10929180E+01  1.00073632E+02  1.00073632E+02
  1.00073632E+02  2.10544139E+02  1.13692210E+02  1.04776284E+02  1.90347359E+01
  1.71467069E+01  1.21392022E+02  1.21392022E+02  1.21392022E+02  2.54804905E+02
  1.37787723E+02  1.27000722E+02  2.32899886E+01  2.10068874E+01  2.57122925E+01
%FLAG BONDS_INC_HYDROGEN
%FORMAT(10I8)
      18      84      14      27      87      18      30      90      20      36
      93      21      36      96      22      36      99      23      39     102
      24      39     105      25      39     108      26      45     111      30
      48     114      32      66     117      42      69     120      44      72
     123      45
%FLAG BONDS_WITHOUT_HYDROGEN
%FORMAT(10I8)
       0       3       1       0      15       2       0      18       3       3
       6       4       3      24       5       6       9       6       6      39
       7       9      12       8       9      27       9      12      15      10
      12      33      11      15      36      12      18      21      13      21
      24      15      21      42      16      27      30      17      30      33
      19      42      45      27      42      54      28      45      48      29
      48      51      31      51      54      33      51      57      34      57
      60      35      57      72      36      60      63      37      60      75
      38      63      66      39      63      81      40      66      69      41
      69      72      43      75      78      46      78      81      47
%FLAG ANGLES_INC_HYDROGEN
%FORMAT(10I8)
       0      18      84      20      21      18      84      21       9      27
      87      27      30      27      87      28      27      30      90      30
      33      30      90      31      15      36      93      33      15      36
      96      34      15      36      99      35      93      36      96      36
      93      36      99      37      96      36      99      38       6      39
     102      39       6      39     105      40       6      39     108      41
     102      39     105      42     102      39     108      43     105      39
     108      44      42      45     111      49      48      45     111      50
      45      48     114      52      51      48     114      53      63      66
     117      68      69      66     117      69      66      69     120      71
      72      69     120      72      57      72     123      74      69      72
     123      75
%FLAG ANGLES_WITHOUT_HYDROGEN
%FORMAT(10I8)
       3       0      15       1       3       0      18       2      15       0
      18       3       0       3       6       4       0       3      24       5
       6       3      24       6       3       6       9       7       3       6
      39       8       9       6      39       9       6       9      12      10
       6       9      27      11      12       9      27      12       9      12
      15      13       9      12      33      14      15      12      33      15
       0      15      12      16       0      15      36      17      12      15
      36      18       0      18      21      19      18      21      24      22
      18      21      42      23      24      21      42      24       3      24
      21      25       9      27      30      26      27      30      33      29
      12      33      30      32      21      42      45      45      21      42
      54      46      45      42      54      47      42      45      48      48
      45      48      51      51      48      51      54      54      48      51
      57      55      54      51      57      56      42      54      51      57
      51      57      60      58      51      57      72      59      60      57
      72      60      57      60      63      61      57      60      75      62
      63      60      75      63      60      63      66      64      60      63
      81      65      66      63      81      66      63      66      69      67
      66      69      72      70      57      72      69      73      60      75
      78      76      75      78      81      77      63      81      78      78
%FLAG DIHEDRALS_INC_HYDROGEN
%FORMAT(10I8)
       3       0      18      84       3      15       0      18      84       3
       3       6      39     102       5       3       6      39     105       6
       3       6      39     108       7       9       6      39     102       8
       9       6      39     105       9       9       6      39     108      10
       6       9      27      87       3      12       9      27      87       3
       0      15      36      93      11       0      15      36      96      12
       0      15      36      99      13      12      15      36      93      14
      12      15      36      96      15      12      15      36      99      16
      24      21      18      84      17      42      21      18      84      17
       9      27      30      90      17      33      30      27      87      17
      87      27      30      90      17      12      33      30      90      23
      21      42      45     111      17      54      42      45     111      17
      42      45      48     114      17      51      48      45     111      17
     111      45      48     114      17      54      51      48     114      17
      57      51      48     114      17      51      57      72     123       1
      60      57      72     123       1      60      63      66     117       1
      81      63      66     117       1      63      66      69     120       1
      72      69      66     117       1     117      66      69     120       1
      66      69      72     123       1      57      72      69     120       1
     120      69      72     123       1       0      21     -18     -84      23
       9      30     -27     -87      23      27      33     -30     -90      23
      42      48     -45    -111      23      45      51     -48    -114      23
      63      69     -66    -117      23      66      72     -69    -120      23
      57      69     -72    -123      23
%FLAG DIHEDRALS_WITHOUT_HYDROGEN
%FORMAT(10I8)
      15       0       3       6       1      15       0       3      24       1
      18       0       3       6       1      18       0      -3      24       1
       3       0      15      12       1       3       0      15      36       1
      18       0      15      12       1      18       0      15      36       1
       3       0     -18      21       2      15       0      18      21       2
       0       3       6       9       1       0       3       6      39       1
       9       6       3      24       1      24       3       6      39       1
       0       3     -24      21       4       6       3      24      21       4
       3       6      -9      12       1       3       6       9      27       1
      12       9       6      39       1      27       9       6      39       1
       6       9     -12      15       1       6       9      12      33       1
      15      12       9      27       1      27       9     -12      33       1
       6       9      27      30       2      12       9     -27      30       2
       0      15     -12       9       1       9      12      15      36       1
       0      15      12      33       1      33      12      15      36       1
       9      12     -33      30       4      15      12      33      30       4
       0      18     -21      24      17       0      18      21      42      17
       3      24     -21      18      18       3      24      21      42      18
      18      21      42      45      19      18      21      42      54      20
      24      21      42      45      21      24      21      42      54      22
       9      27     -30      33      17      12      33     -30      27      18
      21      42      45      48      17      48      45     -42      54      17
      21      42      54      51      24      45      42     -54      51      24
      42      45     -48      51      17      45      48     -51      54      17
      45      48      51      57      17      42      54     -51      48      24
      42      54      51      57      24      48      51      57      60      25
      48      51      57      72      26      54      51      57      60      27
      54      51      57      72      28      51      57      60      63       1
      51      57      60      75       1      63      60      57      72       1
      72      57      60      75       1      51      57      72      69       1
      60      57      72      69       1      57      60      63      66       1
      57      60      63      81       1      66      63      60      75       1
      75      60     -63      81       1      57      60      75      78      29
      63      60     -75      78      29      60      63     -66      69       1
      69      66      63      81       1      60      63     -81      78      29
      66      63      81      78      29      63      66     -69      72       1
      57      72     -69      66       1      60      75     -78      81      29
      63      81     -78      75      29      18       0     -15      -3      23
       0       6      -3     -24      23       3       9      -6     -39      23
       6      12      -9     -27      23       9      15     -12     -33      23
       0      12     -15     -36      23      18      24     -21     -42      23
      21      45     -42     -54      23      48      54     -51     -57      23
      51      60     -57     -72      23      57      63     -60     -75      23
      60      66     -63     -81      23
%FLAG EXCLUDED_ATOMS_LIST
%FORMAT(10I8)
       2       3       4       5       6       7       8       9      12      13
      14      15      29      32      33      34       3       4       5       6
       7       8       9      10      13      14      15      29      35      36
      37       4       5       6       7       8       9      10      11      12
      14      30      35      36      37       5       6       9      10      11
      12      13      14      30      31      35      36      37       6       7
      10      11      12      13      14      30      31      32      33      34
       7       8       9      10      11      12      13      29      32      33
      34       8       9      13      15      16      19      29       9      15
      16      17      18      19      29      38      14      15      16      19
      29      11      12      14      30      31      12      30      31      13
      30      31      32      33      34      35      36      37      16      17
      18      19      20      29      38      39      17      18      19      20
      38      39      18      19      20      21      25      38      39      19
      20      21      22      24      25      26      38      39      42      20
      21      25      38      39      21      22      23      24      25      26
      27      28      39      41      42      22      23      24      25      26
      27      28      40      42      23      24      25      26      27      28
      40      41      24      25      26      27      28      40      41      42
      25      28      40      41      42      26      40      41      42      27
      28      28      40       0      31       0      33      34      34       0
      36      37      37       0      39       0      41      42       0
%FLAG HBOND_ACOEF
%FORMAT(5E16.8)

%FLAG HBOND_BCOEF
%FORMAT(5E16.8)

%FLAG HBCUT
%FORMAT(5E16.8)

%FLAG AMBER_ATOM_TYPE
%FORMAT(20a4)
ca  ca  ca  ca  ca  ca  cc  cd  ss  cc  cd  ss  c3  c3  cd  cc  cc  cd  ss  ca  
ca  ca  ca  ca  ca  nc  ss  nc  ha  ha  h4  hc  hc  hc  hc  hc  hc  ha  ha  ha  
ha  ha  
%FLAG TREE_CHAIN_CLASSIFICATION
%FORMAT(20a4)
BLA BLA BLA BLA BLA BLA BLA BLA BLA BLA BLA BLA BLA BLA BLA BLA BLA BLA BLA BLA 
BLA BLA BLA BLA BLA BLA BLA BLA BLA BLA BLA BLA BLA BLA BLA BLA BLA BLA BLA BLA 
BLA BLA 
%FLAG JOIN_ARRAY
%FORMAT(10I8)
       0       0       0       0       0       0       0       0       0       0
       0       0       0       0       0       0       0       0       0       0
       0       0       0       0       0       0       0       0       0       0
       0       0       0       0       0       0       0       0       0       0
       0       0
%FLAG IROTAT
%FORMAT(10I8)
       0       0       0       0       0       0       0       0       0       0
       0       0       0       0       0       0       0       0       0       0
       0       0       0       0       0       0       0       0       0       0
       0       0       0       0       0       0       0       0       0       0
       0       0
%FLAG SOLVENT_POINTERS
%FORMAT(3I8)
       1       1       2
%FLAG ATOMS_PER_MOLECULE
%FORMAT(10I8)
      42
%FLAG BOX_DIMENSIONS
%FORMAT(5E16.8)
  9.00000000E+01  2.14733000E+01  1.31812000E+01  7.11760000E+00
%FLAG RADIUS_SET
%FORMAT(1a80)
0                                                                               
%FLAG RADII
%FORMAT(5E16.8)
  0.00000000E+00  0.00000000E+00  0.00000000E+00  0.00000000E+00  0.00000000E+00
  0.00000000E+00  0.00000000E+00  0.00000000E+00  0.00000000E+00  0.00000000E+00
  0.00000000E+00  0.00000000E+00  0.00000000E+00  0.00000000E+00  0.00000000E+00
  0.00000000E+00  0.00000000E+00  0.00000000E+00  0.00000000E+00  0.00000000E+00
  0.00000000E+00  0.00000000E+00  0.00000000E+00  0.00000000E+00  0.00000000E+00
  0.00000000E+00  0.00000000E+00  0.00000000E+00  0.00000000E+00  0.00000000E+00
  0.00000000E+00  0.00000000E+00  0.00000000E+00  0.00000000E+00  0.00000000E+00
  0.00000000E+00  0.00000000E+00  0.00000000E+00  0.00000000E+00  0.00000000E+00
  0.00000000E+00  0.00000000E+00
%FLAG SCREEN
%FORMAT(5E16.8)
  0.00000000E+00  0.00000000E+00  0.00000000E+00  0.00000000E+00  0.00000000E+00
  0.00000000E+00  0.00000000E+00  0.00000000E+00  0.00000000E+00  0.00000000E+00
  0.00000000E+00  0.00000000E+00  0.00000000E+00  0.00000000E+00  0.00000000E+00
  0.00000000E+00  0.00000000E+00  0.00000000E+00  0.00000000E+00  0.00000000E+00
  0.00000000E+00  0.00000000E+00  0.00000000E+00  0.00000000E+00  0.00000000E+00
  0.00000000E+00  0.00000000E+00  0.00000000E+00  0.00000000E+00  0.00000000E+00
  0.00000000E+00  0.00000000E+00  0.00000000E+00  0.00000000E+00  0.00000000E+00
  0.00000000E+00  0.00000000E+00  0.00000000E+00  0.00000000E+00  0.00000000E+00
  0.00000000E+00  0.00000000E+00
%FLAG IPOL
%FORMAT(1I8)
       0
