Molecule
  2727
  18.4309989  18.6064702  14.6640594  17.8659989  17.3914702  14.6140594
  16.5319989  17.2354702  14.7050594  15.8259989  18.3724702  14.8470594
  16.3909989  19.5914702  14.8980594  17.7259989  19.7444702  14.8060594
  19.7569989  18.4684702  14.5520594  20.0889989  17.1714702  14.4260594
  18.8749989  16.3394702  14.4540594  14.4979989  18.4994702  14.9600594
  14.2019989  19.7984702  15.0830594  15.3889989  20.6554702  15.0580594
  18.4339989  21.0824702  14.8550594  15.8269989  15.8964702  14.6550594
  21.3329989  16.6674702  14.2920594  21.6769989  15.3794702  14.1650594
  23.0039989  15.2674702  14.0560594  23.6139989  16.4644702  14.1030594
  22.5539989  17.4814702  14.2620594  24.9389989  16.7574702  14.0270594
  25.9249989  15.8404702  13.8800594  27.2309989  16.1884702  13.8100594
  27.6169989  17.4674702  13.8820594  26.6669989  18.3974702  14.0270594
  25.3749989  18.0404702  14.0960594  25.7849989  14.5834702  13.7920594
  27.2559989  13.7504702  13.6150594  28.0639989  15.2444702  13.6730594
  20.4649989  19.3084702  14.5630594  13.7559989  17.6904702  14.9550594
  13.1829989  20.1934702  15.1930594  19.0079989  21.2484702  13.9150594
  17.7609989  21.9594702  14.9690594  19.1399989  21.1134702  15.7150594
  16.5019989  15.0224702  14.5320594  15.2579989  15.7264702  15.5980594
  15.1149989  15.8674702  13.7990594  20.9969989  14.5154702  14.1500594
  23.4509989  14.2744702  13.9450594  28.6799989  17.7514702  13.8250594
  26.9559989  19.4614702  14.0900594  24.6879989  18.8954702  14.2150594
  36.9207210  24.8705470  21.7644630  37.8027210  24.4495470  21.7094630
  37.0057210  25.8305470  21.5954630  34.9317210  22.4355470  17.6614630
  34.3547210  23.1615470  17.3484630  34.5257210  21.5745470  17.4324630
  31.0817210  30.1815470  14.9454630  31.0857210  29.3905470  15.5224630
  30.8127210  30.9645470  15.4684630  37.9717210  32.9715470  19.7144630
  37.5267210  33.0265470  18.8444630  37.5297210  32.2925470  20.2644630
  39.6427210  31.1855470  22.7674630  40.0797210  30.7145470  23.5054630
  38.7507210  31.4765470  23.0474630  36.6387210  21.2155470  15.5324630
  35.7397210  21.5005470  15.7954630  37.0307210  20.6705470  16.2454630
  30.8437210  20.8385470  25.8254630  29.8657210  20.7965470  25.8574630
  31.1847210  20.1015470  25.2794630  37.6807210  20.5315470  25.4914630
  38.0537210  21.0915470  24.7804630  37.5187210  21.0785470  26.2864630
  30.8717210  30.9695470  24.6484630  30.7647210  31.8515470  24.2354630
  29.9947210  30.6275470  24.9184630  36.3687210  27.2615470  18.6994630
  36.8547210  28.0625470  18.9834630  36.9997210  26.5225470  18.5774630
  31.9657210  25.9545470  18.6964630  32.6657210  26.1445470  19.3524630
  31.1257210  25.7615470  19.1614630  38.5267210  18.1625470  24.4784630
  38.3517210  19.0795470  24.7724630  39.4167210  18.1135470  24.0744630
  30.2117210  31.9465470  16.8054630  29.8887210  32.8305470  16.5374630
  30.9397210  32.0475470  17.4514630  33.0547210  27.6105470  26.5054630
  33.1937210  28.5665470  26.6624630  33.9087210  27.1385470  26.5864630
  39.1527210  20.2345470  17.6184630  38.6757210  20.9645470  18.0614630
  39.9867210  20.5745470  17.2334630  33.2097210  24.1795470  16.7114630
  32.7007210  24.0185470  15.8904630  32.6857210  24.7475470  17.3124630
  36.9457210  29.6995470  16.2754630  37.3387210  28.9355470  15.8064630
  36.0007210  29.5185470  16.4574630  37.5887210  32.3105470  15.4284630
  37.5907210  31.4165470  15.8274630  37.1847210  32.9455470  16.0544630
  35.1667210  26.3675470  15.9454630  35.4747210  26.8955470  16.7104630
  34.4417210  25.7735470  16.2304630  34.4437210  31.2595470  24.0004630
  33.7347210  31.4545470  24.6464630  34.2547210  31.7225470  23.1584630
  33.2997210  22.2615470  22.4794630  32.4747210  22.7045470  22.7644630
  33.6927210  22.7545470  21.7314630  36.6047210  20.1755470  20.9004630
  36.8987210  20.8455470  20.2504630  37.3767210  19.8575470  21.4124630
  34.4287210  32.3675470  17.7224630  33.5887210  32.7785470  18.0134630
  34.2547210  31.4605470  17.3984630  34.2927210  28.0105470  22.6714630
  34.6257210  28.9295470  22.7284630  34.7637210  27.4515470  23.3224630
  31.1507210  23.2695470  20.3234630  32.0917210  23.5295470  20.2414630
  30.9507210  23.0565470  21.2574630  38.7667210  22.0685470  23.5664630
  39.0007210  22.8945470  23.0954630  38.5727210  21.3645470  22.9144630
  37.9117210  27.5755470  22.7414630  37.5727210  28.4925470  22.6904630
  37.5017210  27.1185470  23.5044630  36.2967210  31.2755470  21.2934630
  35.5797210  31.8875470  21.5564630  36.7777210  30.9755470  22.0904630
  34.3547210  19.7755470  22.4574630  35.0777210  19.9005470  21.8104630
  33.8257210  20.5965470  22.5194630  37.9217210  27.1605470  15.4034630
  37.0687210  26.8685470  15.0214630  38.3257210  26.4205470  15.9014630
  30.8397210  23.8385470  15.4674630  30.5317210  23.6655470  16.3804630
  30.1757210  23.5015470  14.8304630  34.0867210  29.8755470  16.4734630
  33.7757210  30.1475470  15.5864630  33.3777210  29.3795470  16.9304630
  32.9037210  18.3215470  19.0374630  32.4907210  19.2095470  19.0384630
  33.8537210  18.4045470  18.8184630  35.6267210  18.3505470  19.1884630
  36.2677210  18.2465470  18.4554630  35.8797210  19.1205470  19.7364630
  33.4337210  20.4155470  16.7654630  32.4577210  20.4665470  16.8234630
  33.6917210  20.0775470  15.8844630  34.7517210  23.3615470  26.3714630
  34.7107210  23.4615470  25.3984630  35.6427210  23.0495470  26.6304630
  34.1497210  26.3395470  20.3544630  34.0987210  27.0045470  21.0704630
  34.9317210  26.5205470  19.7944630  31.5427210  28.7505470  22.9484630
  31.3507210  29.4775470  23.5754630  32.4807210  28.4845470  23.0344630
  30.4857210  26.2945470  23.1184630  30.8357210  27.1795470  22.8894630
  30.6637210  26.1065470  24.0624630  31.3847210  28.4215470  16.8094630
  31.6187210  27.4735470  16.8764630  30.7247210  28.6435470  17.4974630
  37.9587210  25.0405470  18.3834630  38.5087210  25.5795470  18.9864630
  38.4977210  24.3135470  18.0114630  30.7337210  23.3125470  22.9904630
  30.2547210  23.0815470  23.8124630  30.8957210  24.2775470  22.9664630
  31.9347210  23.1825470  26.3894630  32.8807210  22.9475470  26.2934630
  31.3817210  22.4035470  26.1754630  39.4867210  29.4465470  20.7524630
  38.7617210  29.7475470  20.1684630  39.5367210  30.0285470  21.5374630
  35.7177210  26.6705470  24.5174630  35.5097210  25.7365470  24.3094630
  35.7547210  26.7895470  25.4874630  34.2827210  23.5095470  20.3534630
  34.5567210  23.1935470  19.4684630  34.5747210  24.4365470  20.4734630
  38.8237210  29.1975470  25.7644630  39.7317210  29.5525470  25.8534630
  38.8597210  28.2215470  25.7084630  35.8937210  24.6795470  14.1924630
  35.1227210  24.0965470  14.0384630  35.7267210  25.2405470  14.9764630
  31.1247210  25.7465470  25.7774630  31.2387210  24.7835470  25.9134630
  31.8747210  26.2245470  26.1874630  37.1167210  30.8335470  23.6984630
  37.6647210  30.4865470  24.4314630  36.2137210  31.0185470  24.0264630
  37.2407210  29.6665470  19.2404630  36.6297210  30.2295470  19.7584630
  37.0467210  29.7665470  18.2864630  38.2617210  23.6685470  14.7384630
  38.2047210  22.7025470  14.8834630  37.3697210  24.0215470  14.5424630
  35.4537210  18.7835470  24.6964630  36.3527210  19.0715470  24.9564630
  35.2077210  19.2075470  23.8494630  34.9437210  24.1245470  23.6954630
  34.4277210  23.3315470  23.4404630  35.5407210  24.3745470  22.9614630
  39.1457210  19.9345470  21.9514630  39.6807210  20.4315470  21.2984630
  39.6157210  19.1135470  22.2014630  37.3687210  22.1965470  19.0944630
  37.6847210  23.0835470  19.3604630  36.6137210  22.2895470  18.4784630
  31.6927210  19.2445470  23.6174630  31.0847210  19.0375470  22.8784630
  32.6187210  19.1445470  23.3164630  37.4027210  18.3325470  16.7864630
  38.1667210  18.9005470  17.0134630  37.5617210  17.9015470  15.9224630
  38.0147210  24.2525470   8.0724990  38.4887210  24.9305470   7.5484990
  37.5627210  24.6805470   8.8274990  36.9207210  24.8705470   3.2224990
  37.8027210  24.4495470   3.1674990  37.0057210  25.8305470   3.0534990
  33.7047210  22.9915470  13.2804990  33.8847210  22.6845470  12.3674990
  32.8887210  22.5655470  13.6124990  39.6427210  31.1855470   4.2254990
  40.0797210  30.7145470   4.9634990  38.7507210  31.4765470   4.5054990
  34.2847210  17.5745470   8.6134990  33.4367210  18.0395470   8.7654990
  34.7237210  17.9475470   7.8214990  37.0127210  19.4945470  13.0854990
  36.9347210  18.5975470  13.4694990  37.1637210  20.1445470  13.8014990
  30.8437210  20.8385470   7.2834990  29.8657210  20.7965470   7.3154990
  31.1847210  20.1015470   6.7374990  37.6807210  20.5315470   6.9494990
  38.0537210  21.0915470   6.2384990  37.5187210  21.0785470   7.7444990
  38.6777210  32.6585470   8.7644990  38.7767210  33.2975470   9.4994990
  39.1987210  32.9635470   7.9944990  30.8717210  30.9695470   6.1064990
  30.7647210  31.8515470   5.6934990  29.9947210  30.6275470   6.3764990
  35.1037210  25.7095470  11.8014990  34.2047210  25.3775470  11.6024990
  35.4257210  25.3035470  12.6314990  32.6287210  31.5995470  12.9534990
  33.5747210  31.7255470  13.1754990  32.1877210  31.1075470  13.6754990
  38.5267210  18.1625470   5.9364990  38.3517210  19.0795470   6.2304990
  39.4167210  18.1135470   5.5324990  37.7607210  30.3215470   9.5134990
  37.9247210  31.2745470   9.3604990  37.9797210  29.8185470   8.7034990
  33.0547210  27.6105470   7.9634990  33.1937210  28.5665470   8.1204990
  33.9087210  27.1385470   8.0444990  29.9827210  29.3565470  10.8894990
  30.8017210  28.8225470  10.9424990  30.2137210  30.2925470  10.7234990
  39.6357210  27.9365470  13.3564990  38.8927210  27.7405470  13.9634990
  39.3097210  28.4745470  12.6054990  35.2587210  31.6805470  14.0264990
  35.4967210  30.8075470  13.6534990  35.9007210  31.9225470  14.7244990
  34.4437210  31.2595470   5.4584990  33.7347210  31.4545470   6.1044990
  34.2547210  31.7225470   4.6164990  32.1357210  27.6675470  11.4214990
  32.9107210  28.2575470  11.5194990  32.4007210  26.8595470  10.9364990
  30.7367210  26.0345470  13.3894990  31.1187210  25.5915470  14.1744990
  31.4527210  26.4465470  12.8654990  33.2997210  22.2615470   3.9374990
  32.4747210  22.7045470   4.2224990  33.6927210  22.7545470   3.1894990
  36.6047210  20.1755470   2.3584990  36.8987210  20.8455470   1.7084990
  37.3767210  19.8575470   2.8704990  34.2927210  28.0105470   4.1294990
  34.6257210  28.9295470   4.1864990  34.7637210  27.4515470   4.7804990
  34.7697210  28.9615470  12.0944990  35.0997210  29.2555470  11.2214990
  35.1667210  28.0955470  12.3184990  31.1507210  23.2695470   1.7814990
  32.0917210  23.5295470   1.6994990  30.9507210  23.0565470   2.7154990
  35.4607210  19.3195470  10.4904990  35.2777210  18.8205470   9.6684990
  36.3317210  19.0505470  10.8474990  35.7297210  27.1335470   8.6034990
  35.5337210  28.0915470   8.6344990  36.1887210  26.8675470   9.4264990
  34.2457210  21.8285470  10.7034990  34.7667210  20.9995470  10.6714990
  34.2237210  22.2345470   9.8124990  37.0697210  21.9885470   9.3404990
  37.5617210  21.4435470   9.9884990  37.6687210  22.6625470   8.9594990
  38.7667210  22.0685470   5.0244990  39.0007210  22.8945470   4.5534990
  38.5727210  21.3645470   4.3724990  37.9117210  27.5755470   4.1994990
  37.5727210  28.4925470   4.1484990  37.5017210  27.1185470   4.9624990
  36.2967210  31.2755470   2.7514990  35.5797210  31.8875470   3.0144990
  36.7777210  30.9755470   3.5484990  34.3547210  19.7755470   3.9154990
  35.0777210  19.9005470   3.2684990  33.8257210  20.5965470   3.9774990
  33.7277210  19.5075470  13.6404990  32.9757210  20.0125470  13.2684990
  34.4347210  19.4335470  12.9674990  39.3227210  32.4705470  13.2784990
  38.6317210  32.5475470  13.9674990  39.0477210  32.9715470  12.4844990
  31.3707210  31.7665470  10.2374990  31.7107210  31.5715470  11.1344990
  31.2067210  32.7285470  10.1534990  34.7517210  23.3615470   7.8294990
  34.7107210  23.4615470   6.8564990  35.6427210  23.0495470   8.0884990
  31.5427210  28.7505470   4.4064990  31.3507210  29.4775470   5.0334990
  32.4807210  28.4845470   4.4924990  38.6377210  30.2415470  12.1494990
  38.0607210  30.4595470  11.3904990  38.9017210  31.0655470  12.6064990
  30.4857210  26.2945470   4.5764990  30.8357210  27.1795470   4.3474990
  30.6637210  26.1065470   5.5204990  39.6697210  23.3325470  12.0744990
  40.0007210  24.1945470  11.7494990  39.4537210  23.4045470  13.0264990
  30.7337210  23.3125470   4.4484990  30.2547210  23.0815470   5.2704990
  30.8957210  24.2775470   4.4244990  31.8827210  20.7235470  11.7774990
  31.0477210  20.9025470  11.2994990  32.6277210  21.1455470  11.3024990
  31.9347210  23.1825470   7.8474990  32.8807210  22.9475470   7.7514990
  31.3817210  22.4035470   7.6334990  35.0857210  29.7745470   8.7264990
  34.3337210  30.2315470   8.2984990  35.6947210  30.4375470   9.1104990
  38.2577210  18.2605470   9.7914990  38.5357210  19.0855470  10.2404990
  38.5017210  18.3065470   8.8444990  35.7177210  26.6705470   5.9754990
  35.5097210  25.7365470   5.7674990  35.7547210  26.7895470   6.9454990
  38.8237210  29.1975470   7.2224990  39.7317210  29.5525470   7.3114990
  38.8597210  28.2215470   7.1664990  32.7307210  30.6625470   8.0044990
  32.3447210  30.8205470   8.8894990  32.0707210  30.8815470   7.3164990
  31.1247210  25.7465470   7.2354990  31.2387210  24.7835470   7.3714990
  31.8747210  26.2245470   7.6454990  37.1167210  30.8335470   5.1564990
  37.6647210  30.4865470   5.8894990  36.2137210  31.0185470   5.4844990
  32.0207210  19.0635470   9.5004990  31.5457210  19.6305470   8.8594990
  31.7947210  19.3395470  10.4114990  35.4537210  18.7835470   6.1544990
  36.3527210  19.0715470   6.4144990  35.2077210  19.2075470   5.3074990
  34.9437210  24.1245470   5.1534990  34.4277210  23.3315470   4.8984990
  35.5407210  24.3745470   4.4194990  39.1457210  19.9345470   3.4094990
  39.6807210  20.4315470   2.7564990  39.6157210  19.1135470   3.6594990
  38.6327210  20.8305470  11.3074990  39.0247210  21.6175470  11.7374990
  38.0617210  20.3595470  11.9474990  37.3067210  25.5895470  10.4064990
  36.6137210  25.5435470  11.0964990  38.1867210  25.6425470  10.8314990
  32.7337210  25.3715470  10.3294990  33.1507210  25.4905470   9.4524990
  32.0037210  24.7235470  10.2584990  31.6927210  19.2445470   5.0754990
  31.0847210  19.0375470   4.3364990  32.6187210  19.1445470   4.7744990
  31.0927210  15.2564990  23.3394630  31.4787210  15.8854990  22.6964630
  31.7627210  15.0314990  24.0174630  36.9207210   6.1204990  21.7644630
  37.8027210   5.6994990  21.7094630  37.0057210   7.0804990  21.5954630
  34.9317210   3.6854990  17.6614630  34.3547210   4.4114990  17.3484630
  34.5257210   2.8244990  17.4324630  39.1407210  16.6664990  20.5574630
  39.6457210  16.5284990  21.3844630  38.7937210  15.8074990  20.2404630
  31.0817210  11.4314990  14.9454630  31.0857210  10.6404990  15.5224630
  30.8127210  12.2144990  15.4684630  37.9717210  14.2214990  19.7144630
  37.5267210  14.2764990  18.8444630  37.5297210  13.5424990  20.2644630
  39.6427210  12.4354990  22.7674630  40.0797210  11.9644990  23.5054630
  38.7507210  12.7264990  23.0474630  36.6387210   2.4654990  15.5324630
  35.7397210   2.7504990  15.7954630  37.0307210   1.9204990  16.2454630
  37.6807210   1.7814990  25.4914630  38.0537210   2.3414990  24.7804630
  37.5187210   2.3284990  26.2864630  30.8717210  12.2194990  24.6484630
  30.7647210  13.1014990  24.2354630  29.9947210  11.8774990  24.9184630
  36.3687210   8.5114990  18.6994630  36.8547210   9.3124990  18.9834630
  36.9997210   7.7724990  18.5774630  31.9657210   7.2044990  18.6964630
  32.6657210   7.3944990  19.3524630  31.1257210   7.0114990  19.1614630
  33.1397210  14.6734990  25.2464630  34.0247210  15.0894990  25.2124630
  33.0347210  14.1964990  26.0944630  30.2117210  13.1964990  16.8054630
  29.8887210  14.0804990  16.5374630  30.9397210  13.2974990  17.4514630
  33.0547210   8.8604990  26.5054630  33.1937210   9.8164990  26.6624630
  33.9087210   8.3884990  26.5864630  33.2097210   5.4294990  16.7114630
  32.7007210   5.2684990  15.8904630  32.6857210   5.9974990  17.3124630
  36.9457210  10.9494990  16.2754630  37.3387210  10.1854990  15.8064630
  36.0007210  10.7684990  16.4574630  34.0437210  14.1064990  21.7994630
  34.3737210  15.0274990  21.8164630  33.7677210  13.8764990  20.8884630
  37.5887210  13.5604990  15.4284630  37.5907210  12.6664990  15.8274630
  37.1847210  14.1954990  16.0544630  35.1667210   7.6174990  15.9454630
  35.4747210   8.1454990  16.7104630  34.4417210   7.0234990  16.2304630
  34.4437210  12.5094990  24.0004630  33.7347210  12.7044990  24.6464630
  34.2547210  12.9724990  23.1584630  36.9267210  15.8064990  23.5684630
  37.1277210  16.7514990  23.7264630  36.3037210  15.7254990  22.8184630
  33.2997210   3.5114990  22.4794630  32.4747210   3.9544990  22.7644630
  33.6927210   4.0044990  21.7314630  34.4287210  13.6174990  17.7224630
  33.5887210  14.0284990  18.0134630  34.2547210  12.7104990  17.3984630
  34.2927210   9.2604990  22.6714630  34.6257210  10.1794990  22.7284630
  34.7637210   8.7014990  23.3224630  31.1507210   4.5194990  20.3234630
  32.0917210   4.7794990  20.2414630  30.9507210   4.3064990  21.2574630
  32.5657210  16.6804990  16.8624630  33.1047210  16.7844990  16.0524630
  32.5117210  17.5384990  17.3314630  36.0867210  14.5584990  25.9964630
  36.9127210  14.3844990  26.4924630  36.3067210  14.8904990  25.1024630
  38.7667210   3.3184990  23.5664630  39.0007210   4.1444990  23.0954630
  38.5727210   2.6144990  22.9144630  37.9117210   8.8254990  22.7414630
  37.5727210   9.7424990  22.6904630  37.5017210   8.3684990  23.5044630
  36.2967210  12.5254990  21.2934630  35.5797210  13.1374990  21.5564630
  36.7777210  12.2254990  22.0904630  37.9217210   8.4104990  15.4034630
  37.0687210   8.1184990  15.0214630  38.3257210   7.6704990  15.9014630
  30.8397210   5.0884990  15.4674630  30.5317210   4.9154990  16.3804630
  30.1757210   4.7514990  14.8304630  30.1567210  17.5784990  25.3754630
  30.5567210  17.9984990  24.5874630  30.5347210  16.6834990  25.4964630
  34.0867210  11.1254990  16.4734630  33.7757210  11.3974990  15.5864630
  33.3777210  10.6294990  16.9304630  34.7517210   4.6114990  26.3714630
  34.7107210   4.7114990  25.3984630  35.6427210   4.2994990  26.6304630
  31.6507210  16.7204990  20.9834630  32.2097210  17.1244990  20.2884630
  30.8397210  17.2564990  21.1014630  34.1497210   7.5894990  20.3544630
  34.0987210   8.2544990  21.0704630  34.9317210   7.7704990  19.7944630
  31.5427210  10.0004990  22.9484630  31.3507210  10.7274990  23.5754630
  32.4807210   9.7344990  23.0344630  30.4857210   7.5444990  23.1184630
  30.8357210   8.4294990  22.8894630  30.6637210   7.3564990  24.0624630
  31.3847210   9.6714990  16.8094630  31.6187210   8.7234990  16.8764630
  30.7247210   9.8934990  17.4974630  37.9587210   6.2904990  18.3834630
  38.5087210   6.8294990  18.9864630  38.4977210   5.5634990  18.0114630
  32.0967210  14.2964990  18.8584630  31.4047210  14.1914990  19.5424630
  32.0647210  15.2064990  18.4994630  30.7337210   4.5624990  22.9904630
  30.2547210   4.3314990  23.8124630  30.8957210   5.5274990  22.9664630
  31.9347210   4.4324990  26.3894630  32.8807210   4.1974990  26.2934630
  31.3817210   3.6534990  26.1754630  39.4867210  10.6964990  20.7524630
  38.7617210  10.9974990  20.1684630  39.5367210  11.2784990  21.5374630
  35.7177210   7.9204990  24.5174630  35.5097210   6.9864990  24.3094630
  35.7547210   8.0394990  25.4874630  34.2827210   4.7594990  20.3534630
  34.5567210   4.4434990  19.4684630  34.5747210   5.6864990  20.4734630
  38.8237210  10.4474990  25.7644630  39.7317210  10.8024990  25.8534630
  38.8597210   9.4714990  25.7084630  36.5297210  15.1064990  17.2834630
  35.6437210  14.7444990  17.4874630  36.5497210  16.0614990  17.5004630
  35.8937210   5.9294990  14.1924630  35.1227210   5.3464990  14.0384630
  35.7267210   6.4904990  14.9764630  31.1247210   6.9964990  25.7774630
  31.2387210   6.0334990  25.9134630  31.8747210   7.4744990  26.1874630
  37.1167210  12.0834990  23.6984630  37.6647210  11.7364990  24.4314630
  36.2137210  12.2684990  24.0264630  37.2407210  10.9164990  19.2404630
  36.6297210  11.4794990  19.7584630  37.0467210  11.0164990  18.2864630
  34.9227210  16.8274990  21.6474630  34.7237210  17.5654990  22.2594630
  35.2017210  17.1884990  20.7814630  38.2617210   4.9184990  14.7384630
  38.2047210   3.9524990  14.8834630  37.3697210   5.2714990  14.5424630
  39.0807210  15.3584990  25.1084630  38.3247210  15.1094990  24.5384630
  38.9517210  16.2684990  25.4444630  34.9437210   5.3744990  23.6954630
  34.4277210   4.5814990  23.4404630  35.5407210   5.6244990  22.9614630
  37.3687210   3.4464990  19.0944630  37.6847210   4.3334990  19.3604630
  36.6137210   3.5394990  18.4784630  38.0147210   5.5024990   8.0724990
  38.4887210   6.1804990   7.5484990  37.5627210   5.9304990   8.8274990
  31.0927210  15.2564990   4.7974990  31.4787210  15.8854990   4.1544990
  31.7627210  15.0314990   5.4754990  36.9207210   6.1204990   3.2224990
  37.8027210   5.6994990   3.1674990  37.0057210   7.0804990   3.0534990
  30.6517210  15.6604990   9.8854990  30.9827210  16.3734990  10.4694990
  29.7157210  15.8334990   9.6574990  33.7047210   4.2414990  13.2804990
  33.8847210   3.9344990  12.3674990  32.8887210   3.8154990  13.6124990
  39.1407210  16.6664990   2.0154990  39.6457210  16.5284990   2.8424990
  38.7937210  15.8074990   1.6984990  39.6427210  12.4354990   4.2254990
  40.0797210  11.9644990   4.9634990  38.7507210  12.7264990   4.5054990
  37.6807210   1.7814990   6.9494990  38.0537210   2.3414990   6.2384990
  37.5187210   2.3284990   7.7444990  38.6777210  13.9084990   8.7644990
  38.7767210  14.5474990   9.4994990  39.1987210  14.2134990   7.9944990
  30.8717210  12.2194990   6.1064990  30.7647210  13.1014990   5.6934990
  29.9947210  11.8774990   6.3764990  35.1037210   6.9594990  11.8014990
  34.2047210   6.6274990  11.6024990  35.4257210   6.5534990  12.6314990
  33.1397210  14.6734990   6.7044990  34.0247210  15.0894990   6.6704990
  33.0347210  14.1964990   7.5524990  32.6287210  12.8494990  12.9534990
  33.5747210  12.9754990  13.1754990  32.1877210  12.3574990  13.6754990
  37.7607210  11.5714990   9.5134990  37.9247210  12.5244990   9.3604990
  37.9797210  11.0684990   8.7034990  33.0547210   8.8604990   7.9634990
  33.1937210   9.8164990   8.1204990  33.9087210   8.3884990   8.0444990
  29.9827210  10.6064990  10.8894990  30.8017210  10.0724990  10.9424990
  30.2137210  11.5424990  10.7234990  39.6357210   9.1864990  13.3564990
  38.8927210   8.9904990  13.9634990  39.3097210   9.7244990  12.6054990
  38.7337210  15.5894990  10.9064990  38.8477210  16.4244990  10.4074990
  37.7997210  15.5004990  11.1844990  34.0437210  14.1064990   3.2574990
  34.3737210  15.0274990   3.2744990  33.7677210  13.8764990   2.3464990
  35.2587210  12.9304990  14.0264990  35.4967210  12.0574990  13.6534990
  35.9007210  13.1724990  14.7244990  36.0487210  14.8554990  11.8694990
  35.6107210  14.5564990  12.6924990  35.4427210  14.7254990  11.1114990
  34.4437210  12.5094990   5.4584990  33.7347210  12.7044990   6.1044990
  34.2547210  12.9724990   4.6164990  36.8337210  16.8814990  13.5274990
  35.9747210  16.7114990  13.9634990  36.8797210  16.3774990  12.6894990
  32.1357210   8.9174990  11.4214990  32.9107210   9.5074990  11.5194990
  32.4007210   8.1094990  10.9364990  36.9267210  15.8064990   5.0264990
  37.1277210  16.7514990   5.1844990  36.3037210  15.7254990   4.2764990
  30.7367210   7.2844990  13.3894990  31.1187210   6.8414990  14.1744990
  31.4527210   7.6964990  12.8654990  33.2997210   3.5114990   3.9374990
  32.4747210   3.9544990   4.2224990  33.6927210   4.0044990   3.1894990
  34.4997210  14.8524990   9.6054990  34.2497210  15.7874990   9.4584990
  35.1397210  14.5744990   8.9194990  34.2927210   9.2604990   4.1294990
  34.6257210  10.1794990   4.1864990  34.7637210   8.7014990   4.7804990
  34.7697210  10.2114990  12.0944990  35.0997210  10.5054990  11.2214990
  35.1667210   9.3454990  12.3184990  31.1507210   4.5194990   1.7814990
  32.0917210   4.7794990   1.6994990  30.9507210   4.3064990   2.7154990
  33.7457210  16.9964990  14.3984990  33.2937210  16.3834990  13.7834990
  33.5927210  17.9194990  14.1114990  35.7297210   8.3834990   8.6034990
  35.5337210   9.3414990   8.6344990  36.1887210   8.1174990   9.4264990
  34.2457210   3.0784990  10.7034990  34.7667210   2.2494990  10.6714990
  34.2237210   3.4844990   9.8124990  37.0697210   3.2384990   9.3404990
  37.5617210   2.6934990   9.9884990  37.6687210   3.9124990   8.9594990
  36.0867210  14.5584990   7.4544990  36.9127210  14.3844990   7.9504990
  36.3067210  14.8904990   6.5604990  38.7667210   3.3184990   5.0244990
  39.0007210   4.1444990   4.5534990  38.5727210   2.6144990   4.3724990
  37.9117210   8.8254990   4.1994990  37.5727210   9.7424990   4.1484990
  37.5017210   8.3684990   4.9624990  36.2967210  12.5254990   2.7514990
  35.5797210  13.1374990   3.0144990  36.7777210  12.2254990   3.5484990
  30.1567210  17.5784990   6.8334990  30.5567210  17.9984990   6.0454990
  30.5347210  16.6834990   6.9544990  39.3227210  13.7204990  13.2784990
  38.6317210  13.7974990  13.9674990  39.0477210  14.2214990  12.4844990
  31.3707210  13.0164990  10.2374990  31.7107210  12.8214990  11.1344990
  31.2067210  13.9784990  10.1534990  34.7517210   4.6114990   7.8294990
  34.7107210   4.7114990   6.8564990  35.6427210   4.2994990   8.0884990
  31.6507210  16.7204990   2.4414990  32.2097210  17.1244990   1.7464990
  30.8397210  17.2564990   2.5594990  31.5427210  10.0004990   4.4064990
  31.3507210  10.7274990   5.0334990  32.4807210   9.7344990   4.4924990
  38.6377210  11.4914990  12.1494990  38.0607210  11.7094990  11.3904990
  38.9017210  12.3154990  12.6064990  30.4857210   7.5444990   4.5764990
  30.8357210   8.4294990   4.3474990  30.6637210   7.3564990   5.5204990
  39.6697210   4.5824990  12.0744990  40.0007210   5.4444990  11.7494990
  39.4537210   4.6544990  13.0264990  30.7337210   4.5624990   4.4484990
  30.2547210   4.3314990   5.2704990  30.8957210   5.5274990   4.4244990
  31.8827210   1.9734990  11.7774990  31.0477210   2.1524990  11.2994990
  32.6277210   2.3954990  11.3024990  31.9347210   4.4324990   7.8474990
  32.8807210   4.1974990   7.7514990  31.3817210   3.6534990   7.6334990
  35.0857210  11.0244990   8.7264990  34.3337210  11.4814990   8.2984990
  35.6947210  11.6874990   9.1104990  35.7177210   7.9204990   5.9754990
  35.5097210   6.9864990   5.7674990  35.7547210   8.0394990   6.9454990
  38.8237210  10.4474990   7.2224990  39.7317210  10.8024990   7.3114990
  38.8597210   9.4714990   7.1664990  32.7307210  11.9124990   8.0044990
  32.3447210  12.0704990   8.8894990  32.0707210  12.1314990   7.3164990
  31.1247210   6.9964990   7.2354990  31.2387210   6.0334990   7.3714990
  31.8747210   7.4744990   7.6454990  37.1167210  12.0834990   5.1564990
  37.6647210  11.7364990   5.8894990  36.2137210  12.2684990   5.4844990
  34.9227210  16.8274990   3.1054990  34.7237210  17.5654990   3.7174990
  35.2017210  17.1884990   2.2394990  39.0807210  15.3584990   6.5664990
  38.3247210  15.1094990   5.9964990  38.9517210  16.2684990   6.9024990
  34.9437210   5.3744990   5.1534990  34.4277210   4.5814990   4.8984990
  35.5407210   5.6244990   4.4194990  37.3067210   6.8394990  10.4064990
  36.6137210   6.7934990  11.0964990  38.1867210   6.8924990  10.8314990
  32.7337210   6.6214990  10.3294990  33.1507210   6.7404990   9.4524990
  32.0037210   5.9734990  10.2584990  21.6346100  32.4605470  16.5574630
  22.3406100  31.8615470  16.2394630  20.8956100  32.4625470  15.9154630
  18.2386100  24.8705470  21.7644630  19.1206100  24.4495470  21.7094630
  18.3236100  25.8305470  21.5954630  24.6276100  28.6165470  22.4864630
  24.8886100  29.4755470  22.0984630  24.7146100  28.6575470  23.4604630
  26.8676100  20.8355470  17.0524630  26.0526100  20.2995470  17.1344630
  27.5206100  20.3535470  16.5054630  20.9026100  23.6335470  21.6594630
  21.3776100  22.9325470  21.1684630  21.5486100  24.2785470  22.0144630
  23.9416100  31.1495470  15.6234630  24.7796100  31.4935470  15.2514630
  24.0816100  30.8945470  16.5584630  12.3996100  30.1815470  14.9454630
  12.4036100  29.3905470  15.5224630  12.1306100  30.9645470  15.4684630
  29.6626100  20.7745470  20.1004630  29.8676100  21.7315470  20.1174630
  29.9976100  20.3825470  19.2684630  19.2896100  32.9715470  19.7144630
  18.8446100  33.0265470  18.8444630  18.8476100  32.2925470  20.2644630
  20.9606100  31.1855470  22.7674630  21.3976100  30.7145470  23.5054630
  20.0686100  31.4765470  23.0474630  12.1616100  20.8385470  25.8254630
  11.1836100  20.7965470  25.8574630  12.5026100  20.1015470  25.2794630
  18.9986100  20.5315470  25.4914630  19.3716100  21.0915470  24.7804630
  18.8366100  21.0785470  26.2864630  12.1896100  30.9695470  24.6484630
  12.0826100  31.8515470  24.2354630  11.3126100  30.6275470  24.9184630
  26.7306100  29.9925470  19.4264630  26.7816100  29.3785470  20.1864630
  26.7746100  30.9165470  19.7484630  17.6866100  27.2615470  18.6994630
  18.1726100  28.0625470  18.9834630  18.3176100  26.5225470  18.5774630
  13.2836100  25.9545470  18.6964630  13.9836100  26.1445470  19.3524630
  12.4436100  25.7615470  19.1614630  25.0806100  31.2895470  21.9554630
  25.8436100  31.8365470  21.6784630  24.2756100  31.8445470  21.9894630
  28.3366100  30.2765470  23.6444630  28.6376100  29.9435470  22.7744630
  27.8586100  29.5665470  24.1184630  23.7756100  26.8455470  20.4894630
  24.1836100  27.5615470  21.0174630  24.2706100  26.7355470  19.6514630
  21.8846100  18.4845470  19.1574630  21.3836100  17.7815470  19.6194630
  21.2596100  19.0815470  18.6974630  24.1256100  30.3775470  18.3844630
  23.7046100  30.9835470  19.0274630  25.0836100  30.3115470  18.5774630
  19.8446100  18.1625470  24.4784630  19.6696100  19.0795470  24.7724630
  20.7346100  18.1135470  24.0744630  11.5296100  31.9465470  16.8054630
  11.2066100  32.8305470  16.5374630  12.2576100  32.0475470  17.4514630
  14.3726100  27.6105470  26.5054630  14.5116100  28.5665470  26.6624630
  15.2266100  27.1385470  26.5864630  20.9426100  26.8665470  19.7954630
  20.7216100  27.7285470  20.2034630  21.8936100  26.6755470  19.9304630
  24.9606100  26.2795470  18.1754630  25.7316100  26.6145470  17.6734630
  24.1376100  26.4885470  17.6884630  14.5276100  24.1795470  16.7114630
  14.0186100  24.0185470  15.8904630  14.0036100  24.7475470  17.3124630
  18.2636100  29.6995470  16.2754630  18.6566100  28.9355470  15.8064630
  17.3186100  29.5185470  16.4574630  22.2706100  24.1165470  14.7734630
  22.7186100  24.9765470  14.6394630  21.3306100  24.2705470  14.9974630
  24.5456100  18.3595470  19.8684630  24.6396100  17.3885470  19.9514630
  23.5986100  18.5905470  19.7894630  26.7836100  21.1165470  19.8304630
  27.6356100  20.8745470  20.2464630  26.8656100  21.0495470  18.8574630
  18.9066100  32.3105470  15.4284630  18.9086100  31.4165470  15.8274630
  18.5026100  32.9455470  16.0544630  22.7756100  30.4885470  24.8664630
  23.2356100  29.6275470  24.9464630  23.3136100  31.1865470  25.2934630
  16.4846100  26.3675470  15.9454630  16.7926100  26.8955470  16.7104630
  15.7596100  25.7735470  16.2304630  22.5686100  28.0525470  17.5754630
  22.9936100  28.9245470  17.7024630  21.8976100  27.9115470  18.2734630
  29.7146100  25.7675470  20.3634630  29.8566100  26.1405470  21.2574630
  29.4986100  24.8155470  20.4374630  21.8306100  32.6615470  19.2164630
  20.8866100  32.5695470  19.4584630  21.9096100  32.7845470  18.2484630
  24.4546100  18.3595470  26.7184630  24.4846100  17.8665470  25.8724630
  23.6456100  18.9095470  26.7474630  15.7616100  31.2595470  24.0004630
  15.0526100  31.4545470  24.6464630  15.5726100  31.7225470  23.1584630
  24.6356100  22.2275470  20.9144630  24.4836100  22.5055470  21.8404630
  25.5336100  21.8465470  20.8304630  25.3256100  26.6535470  14.7344630
  24.4046100  26.7465470  15.0524630  25.3956100  25.8595470  14.1664630
  23.9086100  21.7255470  24.4924630  23.7196100  22.3585470  23.7694630
  23.7996100  20.8105470  24.1614630  14.6176100  22.2615470  22.4794630
  13.7926100  22.7045470  22.7644630  15.0106100  22.7545470  21.7314630
  17.9226100  20.1755470  20.9004630  18.2166100  20.8455470  20.2504630
  18.6946100  19.8575470  21.4124630  21.6006100  23.5715470  17.5264630
  21.6776100  23.1835470  16.6304630  22.4446100  23.4515470  18.0074630
  26.5476100  31.1655470  14.9654630  27.0596100  30.6835470  15.6464630
  26.2406100  30.5355470  14.2814630  15.7466100  32.3675470  17.7224630
  14.9066100  32.7785470  18.0134630  15.5726100  31.4605470  17.3984630
  15.6106100  28.0105470  22.6714630  15.9436100  28.9295470  22.7284630
  16.0816100  27.4515470  23.3224630  12.4686100  23.2695470  20.3234630
  13.4096100  23.5295470  20.2414630  12.2686100  23.0565470  21.2574630
  26.7086100  21.8895470  25.3344630  25.8286100  21.7825470  24.9184630
  27.1356100  21.0135470  25.4254630  22.4116100  33.3835470  21.7944630
  22.1246100  33.2715470  20.8654630  21.9626100  32.7205470  22.3574630
  29.4806100  28.1765470  19.0364630  29.5746100  27.3235470  19.5064630
  28.5386100  28.4445470  19.0324630  30.5266100  20.5665470  17.4294630
  30.5086100  21.4745470  17.0644630  29.8476100  20.0215470  16.9834630
  27.7566100  23.6665470  20.2864630  27.2976100  22.8535470  19.9944630
  27.6706100  24.3555470  19.5964630  28.0676100  30.4015470  16.9514630
  27.6536100  30.2425470  17.8234630  28.7886100  31.0555470  17.0464630
  20.0846100  22.0685470  23.5664630  20.3186100  22.8945470  23.0954630
  19.8906100  21.3645470  22.9144630  19.2296100  27.5755470  22.7414630
  18.8906100  28.4925470  22.6904630  18.8196100  27.1185470  23.5044630
  17.6146100  31.2755470  21.2934630  16.8976100  31.8875470  21.5564630
  18.0956100  30.9755470  22.0904630  15.6726100  19.7755470  22.4574630
  16.3956100  19.9005470  21.8104630  15.1436100  20.5965470  22.5194630
  19.2396100  27.1605470  15.4034630  18.3866100  26.8685470  15.0214630
  19.6436100  26.4205470  15.9014630  12.1576100  23.8385470  15.4674630
  11.8496100  23.6655470  16.3804630  11.4936100  23.5015470  14.8304630
  15.4046100  29.8755470  16.4734630  15.0936100  30.1475470  15.5864630
  14.6956100  29.3795470  16.9304630  26.6906100  25.6815470  25.4264630
  25.7926100  25.7425470  25.8114630  27.3086100  25.3235470  26.0954630
  23.7826100  24.0335470  23.0074630  24.6986100  24.3175470  22.8134630
  23.3186100  24.7415470  23.5004630  22.6796100  26.9665470  15.1804630
  22.6226100  27.6195470  15.9074630  22.2206100  27.3175470  14.3904630
  24.5136100  32.4245470  26.1344630  25.4286100  32.7645470  26.1974630
  24.1526100  32.2895470  27.0344630  14.2216100  18.3215470  19.0374630
  13.8086100  19.2095470  19.0384630  15.1716100  18.4045470  18.8184630
  16.9446100  18.3505470  19.1884630  17.5856100  18.2465470  18.4554630
  17.1976100  19.1205470  19.7364630  27.3516100  28.1195470  21.6654630
  27.5256100  27.2055470  21.3614630  26.4526100  28.1695470  22.0494630
  16.0696100  23.3615470  26.3714630  16.0286100  23.4615470  25.3984630
  16.9606100  23.0495470  26.6304630  23.1186100  21.0015470  17.1394630
  23.5986100  20.1765470  17.3574630  23.6816100  21.7725470  17.3564630
  15.4676100  26.3395470  20.3544630  15.4166100  27.0045470  21.0704630
  16.2496100  26.5205470  19.7944630  12.8606100  28.7505470  22.9484630
  12.6686100  29.4775470  23.5754630  13.7986100  28.4845470  23.0344630
  27.6026100  24.8095470  17.6764630  27.5496100  25.7735470  17.5194630
  27.1276100  24.3355470  16.9634630  11.8036100  26.2945470  23.1184630
  12.1536100  27.1795470  22.8894630  11.9816100  26.1065470  24.0624630
  12.7026100  28.4215470  16.8094630  12.9366100  27.4735470  16.8764630
  12.0426100  28.6435470  17.4974630  24.4146100  28.2655470  25.2064630
  25.2776100  28.4475470  25.6304630  23.9386100  27.5785470  25.7174630
  19.2766100  25.0405470  18.3834630  19.8266100  25.5795470  18.9864630
  19.8156100  24.3135470  18.0114630  12.0516100  23.3125470  22.9904630
  11.5726100  23.0815470  23.8124630  12.2136100  24.2775470  22.9664630
  13.2526100  23.1825470  26.3894630  14.1986100  22.9475470  26.2934630
  12.6996100  22.4035470  26.1754630  29.6616100  18.4815470  21.7834630
  29.5786100  19.3115470  21.2714630  28.8076100  18.0045470  21.7734630
  26.4306100  24.8155470  22.6954630  26.6876100  25.2145470  23.5524630
  27.2166100  24.4065470  22.2784630  20.8046100  29.4465470  20.7524630
  20.0796100  29.7475470  20.1684630  20.8546100  30.0285470  21.5374630
  28.3666100  19.7235470  25.0874630  28.8056100  19.2075470  25.7944630
  28.4406100  19.2425470  24.2384630  17.0356100  26.6705470  24.5174630
  16.8276100  25.7365470  24.3094630  17.0726100  26.7895470  25.4874630
  15.6006100  23.5095470  20.3534630  15.8746100  23.1935470  19.4684630
  15.8926100  24.4365470  20.4734630  20.1416100  29.1975470  25.7644630
  21.0496100  29.5525470  25.8534630  20.1776100  28.2215470  25.7084630
  20.9676100  26.5495470  25.2014630  21.1806100  26.4775470  24.2484630
  21.7546100  26.3115470  25.7314630  12.4426100  25.7465470  25.7774630
  12.5566100  24.7835470  25.9134630  13.1926100  26.2245470  26.1874630
  18.4346100  30.8335470  23.6984630  18.9826100  30.4865470  24.4314630
  17.5316100  31.0185470  24.0264630  18.5586100  29.6665470  19.2404630
  17.9476100  30.2295470  19.7584630  18.3646100  29.7665470  18.2864630
  27.3206100  28.2955470  25.4144630  27.6926100  28.4855470  26.2994630
  27.2326100  27.3275470  25.2984630  22.1536100  21.2895470  20.4594630
  23.0936100  21.4455470  20.6844630  22.0866100  20.9855470  19.5314630
  24.2106100  19.4985470  22.6554630  24.1816100  19.2135470  21.7194630
  24.7016100  18.8365470  23.1834630  29.0086100  23.4665470  24.9434630
  28.2646100  22.8405470  25.0594630  28.6586100  24.3765470  24.8574630
  29.4266100  33.0215470  21.5054630  29.7486100  32.1335470  21.2494630
  30.0356100  33.4115470  22.1664630  27.0436100  27.4785470  16.7244630
  26.6386100  27.2635470  15.8594630  27.5506100  28.3125470  16.6484630
  21.8836100  26.2635470  22.5254630  21.0806100  26.7055470  22.1804630
  22.5956100  26.3135470  21.8564630  24.1666100  23.6725470  18.6494630
  24.3326100  24.6265470  18.7924630  24.4136100  23.1735470  19.4544630
  16.7716100  18.7835470  24.6964630  17.6706100  19.0715470  24.9564630
  16.5256100  19.2075470  23.8494630  26.1746100  23.2625470  15.6454630
  25.4846100  23.0445470  14.9854630  26.3776100  22.4675470  16.1784630
  29.6636100  23.2725470  17.8894630  29.0236100  24.0095470  17.9544630
  30.2496100  23.2785470  18.6734630  30.1886100  30.4395470  20.7894630
  29.8976100  29.8065470  20.1014630  30.7946100  29.9895470  21.4114630
  16.2616100  24.1245470  23.6954630  15.7456100  23.3315470  23.4404630
  16.8586100  24.3745470  22.9614630  20.4636100  19.9345470  21.9514630
  20.9986100  20.4315470  21.2984630  20.9336100  19.1135470  22.2014630
  18.6866100  22.1965470  19.0944630  19.0026100  23.0835470  19.3604630
  17.9316100  22.2895470  18.4784630  13.0106100  19.2445470  23.6174630
  12.4026100  19.0375470  22.8784630  13.9366100  19.1445470  23.3164630
  19.3326100  24.2525470   8.0724990  19.8066100  24.9305470   7.5484990
  18.8806100  24.6805470   8.8274990  18.2386100  24.8705470   3.2224990
  19.1206100  24.4495470   3.1674990  18.3236100  25.8305470   3.0534990
  24.6276100  28.6165470   3.9444990  24.8886100  29.4755470   3.5564990
  24.7146100  28.6575470   4.9184990  20.9026100  23.6335470   3.1174990
  21.3776100  22.9325470   2.6264990  21.5486100  24.2785470   3.4724990
  20.9606100  31.1855470   4.2254990  21.3976100  30.7145470   4.9634990
  20.0686100  31.4765470   4.5054990  15.6026100  17.5745470   8.6134990
  14.7546100  18.0395470   8.7654990  16.0416100  17.9475470   7.8214990
  12.1616100  20.8385470   7.2834990  11.1836100  20.7965470   7.3154990
  12.5026100  20.1015470   6.7374990  18.9986100  20.5315470   6.9494990
  19.3716100  21.0915470   6.2384990  18.8366100  21.0785470   7.7444990
  19.9956100  32.6585470   8.7644990  20.0946100  33.2975470   9.4994990
  20.5166100  32.9635470   7.9944990  12.1896100  30.9695470   6.1064990
  12.0826100  31.8515470   5.6934990  11.3126100  30.6275470   6.3764990
  16.4216100  25.7095470  11.8014990  15.5226100  25.3775470  11.6024990
  16.7436100  25.3035470  12.6314990  25.6176100  27.4825470  11.0234990
  25.6866100  28.2325470  11.6494990  25.5706100  26.6435470  11.5244990
  29.0936100  30.9355470   8.6624990  30.0376100  31.1805470   8.5784990
  29.0106100  30.1555470   9.2474990  25.0806100  31.2895470   3.4134990
  25.8436100  31.8365470   3.1364990  24.2756100  31.8445470   3.4474990
  13.9466100  31.5995470  12.9534990  14.8926100  31.7255470  13.1754990
  13.5056100  31.1075470  13.6754990  28.3366100  30.2765470   5.1024990
  28.6376100  29.9435470   4.2324990  27.8586100  29.5665470   5.5764990
  29.3776100  20.7075470  10.6944990  29.0286100  21.1695470  11.4844990
  29.1616100  21.2245470   9.8914990  19.8446100  18.1625470   5.9364990
  19.6696100  19.0795470   6.2304990  20.7346100  18.1135470   5.5324990
  19.0786100  30.3215470   9.5134990  19.2426100  31.2745470   9.3604990
  19.2976100  29.8185470   8.7034990  27.1246100  18.8085470   9.5174990
  26.3766100  19.0375470   8.9284990  27.0136100  19.2615470  10.3774990
  14.3726100  27.6105470   7.9634990  14.5116100  28.5665470   8.1204990
  15.2266100  27.1385470   8.0444990  25.9806100  22.8985470  10.5774990
  26.9186100  22.7825470  10.3244990  25.4276100  22.9365470   9.7704990
  28.9516100  31.2865470  13.2534990  29.4696100  30.8515470  13.9614990
  28.2106100  31.7865470  13.6534990  24.8356100  25.1875470  12.3314990
  23.8656100  25.3255470  12.3304990  25.0446100  24.3425470  11.8824990
  11.3006100  29.3565470  10.8894990  12.1196100  28.8225470  10.9424990
  11.5316100  30.2925470  10.7234990  24.1746100  22.1955470  14.1564990
  23.9826100  21.5225470  13.4724990  23.3456100  22.6525470  14.4054990
  28.8976100  28.1395470  13.3164990  29.4506100  28.8695470  12.9724990
  29.4746100  27.4295470  13.6654990  20.9536100  27.9365470  13.3564990
  20.2106100  27.7405470  13.9634990  20.6276100  28.4745470  12.6054990
  21.7016100  25.9175470  11.7624990  21.5476100  26.6925470  12.3404990
  22.1426100  26.2085470  10.9374990  26.1236100  28.8465470  13.2814990
  25.6516100  28.2025470  13.8474990  27.0886100  28.7095470  13.3654990
  22.6566100  21.5435470  10.3004990  23.1076100  20.9185470  10.9034990
  22.0196100  22.0855470  10.8084990  16.5766100  31.6805470  14.0264990
  16.8146100  30.8075470  13.6534990  17.2186100  31.9225470  14.7244990
  22.1036100  19.7595470   8.0354990  22.1736100  20.4065470   8.7674990
  21.6066100  20.1605470   7.2934990  22.7756100  30.4885470   6.3244990
  23.2356100  29.6275470   6.4044990  23.3136100  31.1865470   6.7514990
  28.1246100  32.5435470  10.9564990  28.5466100  32.0435470  11.6844990
  28.4326100  32.1915470  10.0974990  29.7146100  25.7675470   1.8214990
  29.8566100  26.1405470   2.7154990  29.4986100  24.8155470   1.8954990
  24.4546100  18.3595470   8.1764990  24.4846100  17.8665470   7.3304990
  23.6456100  18.9095470   8.2054990  15.7616100  31.2595470   5.4584990
  15.0526100  31.4545470   6.1044990  15.5726100  31.7225470   4.6164990
  24.6356100  22.2275470   2.3724990  24.4836100  22.5055470   3.2984990
  25.5336100  21.8465470   2.2884990  22.2236100  29.8595470   9.8054990
  21.3896100  29.8695470  10.3184990  22.7376100  30.6695470  10.0024990
  13.4536100  27.6675470  11.4214990  14.2286100  28.2575470  11.5194990
  13.7186100  26.8595470  10.9364990  24.1276100  22.9215470   8.5104990
  23.3916100  22.4885470   8.9894990  24.2956100  22.4455470   7.6714990
  23.1416100  27.4075470  10.0014990  24.0716100  27.4335470  10.3064990
  22.8436100  28.3145470   9.7844990  23.9086100  21.7255470   5.9504990
  23.7196100  22.3585470   5.2274990  23.7996100  20.8105470   5.6194990
  12.0546100  26.0345470  13.3894990  12.4366100  25.5915470  14.1744990
  12.7706100  26.4465470  12.8654990  14.6176100  22.2615470   3.9374990
  13.7926100  22.7045470   4.2224990  15.0106100  22.7545470   3.1894990
  17.9226100  20.1755470   2.3584990  18.2166100  20.8455470   1.7084990
  18.6946100  19.8575470   2.8704990  15.6106100  28.0105470   4.1294990
  15.9436100  28.9295470   4.1864990  16.0816100  27.4515470   4.7804990
  16.0876100  28.9615470  12.0944990  16.4176100  29.2555470  11.2214990
  16.4846100  28.0955470  12.3184990  12.4686100  23.2695470   1.7814990
  13.4096100  23.5295470   1.6994990  12.2686100  23.0565470   2.7154990
  26.7086100  21.8895470   6.7924990  25.8286100  21.7825470   6.3764990
  27.1356100  21.0135470   6.8834990  16.7786100  19.3195470  10.4904990
  16.5956100  18.8205470   9.6684990  17.6496100  19.0505470  10.8474990
  22.4116100  33.3835470   3.2524990  22.1246100  33.2715470   2.3234990
  21.9626100  32.7205470   3.8154990  17.0476100  27.1335470   8.6034990
  16.8516100  28.0915470   8.6344990  17.5066100  26.8675470   9.4264990
  28.2576100  22.5195470   9.1194990  28.6396100  23.4205470   9.1184990
  27.7386100  22.3855470   8.2994990  15.5636100  21.8285470  10.7034990
  16.0846100  20.9995470  10.6714990  15.5416100  22.2345470   9.8124990
  18.3876100  21.9885470   9.3404990  18.8796100  21.4435470   9.9884990
  18.9866100  22.6625470   8.9594990  24.3396100  25.6475470   8.2234990
  24.4506100  24.7145470   8.4994990  23.8546100  26.1375470   8.9184990
  20.0846100  22.0685470   5.0244990  20.3186100  22.8945470   4.5534990
  19.8906100  21.3645470   4.3724990  19.2296100  27.5755470   4.1994990
  18.8906100  28.4925470   4.1484990  18.8196100  27.1185470   4.9624990
  17.6146100  31.2755470   2.7514990  16.8976100  31.8875470   3.0144990
  18.0956100  30.9755470   3.5484990  15.6726100  19.7755470   3.9154990
  16.3956100  19.9005470   3.2684990  15.1436100  20.5965470   3.9774990
  20.6406100  32.4705470  13.2784990  19.9496100  32.5475470  13.9674990
  20.3656100  32.9715470  12.4844990  26.6906100  25.6815470   6.8844990
  25.7926100  25.7425470   7.2694990  27.3086100  25.3235470   7.5534990
  23.7826100  24.0335470   4.4654990  24.6986100  24.3175470   4.2714990
  23.3186100  24.7415470   4.9584990  24.5136100  32.4245470   7.5924990
  25.4286100  32.7645470   7.6554990  24.1526100  32.2895470   8.4924990
  27.3516100  28.1195470   3.1234990  27.5256100  27.2055470   2.8194990
  26.4526100  28.1695470   3.5074990  12.6886100  31.7665470  10.2374990
  13.0286100  31.5715470  11.1344990  12.5246100  32.7285470  10.1534990
  16.0696100  23.3615470   7.8294990  16.0286100  23.4615470   6.8564990
  16.9606100  23.0495470   8.0884990  12.8606100  28.7505470   4.4064990
  12.6686100  29.4775470   5.0334990  13.7986100  28.4845470   4.4924990
  19.9556100  30.2415470  12.1494990  19.3786100  30.4595470  11.3904990
  20.2196100  31.0655470  12.6064990  11.8036100  26.2945470   4.5764990
  12.1536100  27.1795470   4.3474990  11.9816100  26.1065470   5.5204990
  24.0306100  31.8185470  10.3224990  23.5346100  31.9995470  11.1464990
  24.9896100  31.9295470  10.4874990  20.9876100  23.3325470  12.0744990
  21.3186100  24.1945470  11.7494990  20.7716100  23.4045470  13.0264990
  24.4146100  28.2655470   6.6644990  25.2776100  28.4475470   7.0884990
  23.9386100  27.5785470   7.1754990  28.8026100  25.3685470   8.9604990
  29.5516100  25.3745470   8.3304990  28.4936100  26.2855470   9.1084990
  12.0516100  23.3125470   4.4484990  11.5726100  23.0815470   5.2704990
  12.2136100  24.2775470   4.4244990  13.2526100  23.1825470   7.8474990
  14.1986100  22.9475470   7.7514990  12.6996100  22.4035470   7.6334990
  29.6616100  18.4815470   3.2414990  29.5786100  19.3115470   2.7294990
  28.8076100  18.0045470   3.2314990  26.4306100  24.8155470   4.1534990
  26.6876100  25.2145470   5.0104990  27.2166100  24.4065470   3.7364990
  23.1876100  31.5455470  12.8574990  22.2836100  31.8435470  13.0874990
  23.5876100  31.0915470  13.6264990  16.4036100  29.7745470   8.7264990
  15.6516100  30.2315470   8.2984990  17.0126100  30.4375470   9.1104990
  28.3666100  19.7235470   6.5454990  28.8056100  19.2075470   7.2524990
  28.4406100  19.2425470   5.6964990  19.5756100  18.2605470   9.7914990
  19.8536100  19.0855470  10.2404990  19.8196100  18.3065470   8.8444990
  17.0356100  26.6705470   5.9754990  16.8276100  25.7365470   5.7674990
  17.0726100  26.7895470   6.9454990  20.1416100  29.1975470   7.2224990
  21.0496100  29.5525470   7.3114990  20.1776100  28.2215470   7.1664990
  29.0936100  24.4465470  11.8634990  29.6156100  25.2455470  12.0834990
  28.3726100  24.6875470  11.2474990  14.0486100  30.6625470   8.0044990
  13.6626100  30.8205470   8.8894990  13.3886100  30.8815470   7.3164990
  20.9676100  26.5495470   6.6594990  21.1806100  26.4775470   5.7064990
  21.7546100  26.3115470   7.1894990  12.4426100  25.7465470   7.2354990
  12.5566100  24.7835470   7.3714990  13.1926100  26.2245470   7.6454990
  18.4346100  30.8335470   5.1564990  18.9826100  30.4865470   5.8894990
  17.5316100  31.0185470   5.4844990  28.5776100  23.3035470  14.1864990
  28.6106100  23.8835470  13.3984990  27.8206100  23.5605470  14.7504990
  13.3386100  19.0635470   9.5004990  12.8636100  19.6305470   8.8594990
  13.1126100  19.3395470  10.4114990  27.3206100  28.2955470   6.8724990
  27.6926100  28.4855470   7.7574990  27.2326100  27.3275470   6.7564990
  24.2106100  19.4985470   4.1134990  24.1816100  19.2135470   3.1774990
  24.7016100  18.8365470   4.6414990  29.0086100  23.4665470   6.4014990
  28.2646100  22.8405470   6.5174990  28.6586100  24.3765470   6.3154990
  29.4266100  33.0215470   2.9634990  29.7486100  32.1335470   2.7074990
  30.0356100  33.4115470   3.6244990  21.8836100  26.2635470   3.9834990
  21.0806100  26.7055470   3.6384990  22.5956100  26.3135470   3.3144990
  16.7716100  18.7835470   6.1544990  17.6706100  19.0715470   6.4144990
  16.5256100  19.2075470   5.3074990  16.2616100  24.1245470   5.1534990
  15.7456100  23.3315470   4.8984990  16.8586100  24.3745470   4.4194990
  20.4636100  19.9345470   3.4094990  20.9986100  20.4315470   2.7564990
  20.9336100  19.1135470   3.6594990  18.6246100  25.5895470  10.4064990
  17.9316100  25.5435470  11.0964990  19.5046100  25.6425470  10.8314990
  14.0516100  25.3715470  10.3294990  14.4686100  25.4905470   9.4524990
  13.3216100  24.7235470  10.2584990  13.0106100  19.2445470   5.0754990
  12.4026100  19.0375470   4.3364990  13.9366100  19.1445470   4.7744990
  27.9356100  28.0915470   9.5184990  28.6056100  28.5055470  10.0994990
  27.0926100  27.9995470  10.0064990  12.4106100  15.2564990  23.3394630
  12.7966100  15.8854990  22.6964630  13.0806100  15.0314990  24.0174630
  18.2386100   6.1204990  21.7644630  19.1206100   5.6994990  21.7094630
  18.3236100   7.0804990  21.5954630  24.6276100   9.8664990  22.4864630
  24.8886100  10.7254990  22.0984630  24.7146100   9.9074990  23.4604630
  16.2496100   3.6854990  17.6614630  15.6726100   4.4114990  17.3484630
  15.8436100   2.8244990  17.4324630  24.8396100  16.0344990  20.9684630
  23.9276100  15.6774990  20.9454630  25.4436100  15.3604990  21.3414630
  20.9026100   4.8834990  21.6594630  21.3776100   4.1824990  21.1684630
  21.5486100   5.5284990  22.0144630  20.4586100  16.6664990  20.5574630
  20.9636100  16.5284990  21.3844630  20.1116100  15.8074990  20.2404630
  12.3996100  11.4314990  14.9454630  12.4036100  10.6404990  15.5224630
  12.1306100  12.2144990  15.4684630  19.2896100  14.2214990  19.7144630
  18.8446100  14.2764990  18.8444630  18.8476100  13.5424990  20.2644630
  20.9606100  12.4354990  22.7674630  21.3976100  11.9644990  23.5054630
  20.0686100  12.7264990  23.0474630  17.9566100   2.4654990  15.5324630
  17.0576100   2.7504990  15.7954630  18.3486100   1.9204990  16.2454630
  18.9986100   1.7814990  25.4914630  19.3716100   2.3414990  24.7804630
  18.8366100   2.3284990  26.2864630  12.1896100  12.2194990  24.6484630
  12.0826100  13.1014990  24.2354630  11.3126100  11.8774990  24.9184630
  26.7306100  11.2424990  19.4264630  26.7816100  10.6284990  20.1864630
  26.7746100  12.1664990  19.7484630  17.6866100   8.5114990  18.6994630
  18.1726100   9.3124990  18.9834630  18.3176100   7.7724990  18.5774630
  13.2836100   7.2044990  18.6964630  13.9836100   7.3944990  19.3524630
  12.4436100   7.0114990  19.1614630  14.4576100  14.6734990  25.2464630
  15.3426100  15.0894990  25.2124630  14.3526100  14.1964990  26.0944630
  25.0806100  12.5394990  21.9554630  25.8436100  13.0864990  21.6784630
  24.2756100  13.0944990  21.9894630  28.3366100  11.5264990  23.6444630
  28.6376100  11.1934990  22.7744630  27.8586100  10.8164990  24.1184630
  23.7756100   8.0954990  20.4894630  24.1836100   8.8114990  21.0174630
  24.2706100   7.9854990  19.6514630  24.1256100  11.6274990  18.3844630
  23.7046100  12.2334990  19.0274630  25.0836100  11.5614990  18.5774630
  11.5296100  13.1964990  16.8054630  11.2066100  14.0804990  16.5374630
  12.2576100  13.2974990  17.4514630  14.3726100   8.8604990  26.5054630
  14.5116100   9.8164990  26.6624630  15.2266100   8.3884990  26.5864630
  20.9426100   8.1164990  19.7954630  20.7216100   8.9784990  20.2034630
  21.8936100   7.9254990  19.9304630  24.9606100   7.5294990  18.1754630
  25.7316100   7.8644990  17.6734630  24.1376100   7.7384990  17.6884630
  14.5276100   5.4294990  16.7114630  14.0186100   5.2684990  15.8904630
  14.0036100   5.9974990  17.3124630  18.2636100  10.9494990  16.2754630
  18.6566100  10.1854990  15.8064630  17.3186100  10.7684990  16.4574630
  15.3616100  14.1064990  21.7994630  15.6916100  15.0274990  21.8164630
  15.0856100  13.8764990  20.8884630  22.2706100   5.3664990  14.7734630
  22.7186100   6.2264990  14.6394630  21.3306100   5.5204990  14.9974630
  26.7836100   2.3664990  19.8304630  27.6356100   2.1244990  20.2464630
  26.8656100   2.2994990  18.8574630  22.7756100  11.7384990  24.8664630
  23.2356100  10.8774990  24.9464630  23.3136100  12.4364990  25.2934630
  16.4846100   7.6174990  15.9454630  16.7926100   8.1454990  16.7104630
  15.7596100   7.0234990  16.2304630  22.5686100   9.3024990  17.5754630
  22.9936100  10.1744990  17.7024630  21.8976100   9.1614990  18.2734630
  29.7146100   7.0174990  20.3634630  29.8566100   7.3904990  21.2574630
  29.4986100   6.0654990  20.4374630  21.8306100  13.9114990  19.2164630
  20.8866100  13.8194990  19.4584630  21.9096100  14.0344990  18.2484630
  26.8396100  13.9154990  19.8624630  26.4296100  14.6744990  19.4004630
  27.7496100  14.1524990  20.1354630  15.7616100  12.5094990  24.0004630
  15.0526100  12.7044990  24.6464630  15.5726100  12.9724990  23.1584630
  24.6356100   3.4774990  20.9144630  24.4836100   3.7554990  21.8404630
  25.5336100   3.0964990  20.8304630  25.3256100   7.9034990  14.7344630
  24.4046100   7.9964990  15.0524630  25.3956100   7.1094990  14.1664630
  27.3676100  14.1194990  26.1584630  27.8666100  13.4274990  26.6374630
  27.7606100  14.9954990  26.3484630  18.2446100  15.8064990  23.5684630
  18.4456100  16.7514990  23.7264630  17.6216100  15.7254990  22.8184630
  23.9086100   2.9754990  24.4924630  23.7196100   3.6084990  23.7694630
  23.7996100   2.0604990  24.1614630  14.6176100   3.5114990  22.4794630
  13.7926100   3.9544990  22.7644630  15.0106100   4.0044990  21.7314630
  21.6006100   4.8214990  17.5264630  21.6776100   4.4334990  16.6304630
  22.4446100   4.7014990  18.0074630  15.6106100   9.2604990  22.6714630
  15.9436100  10.1794990  22.7284630  16.0816100   8.7014990  23.3224630
  12.4686100   4.5194990  20.3234630  13.4096100   4.7794990  20.2414630
  12.2686100   4.3064990  21.2574630  26.7086100   3.1394990  25.3344630
  25.8286100   3.0324990  24.9184630  27.1356100   2.2634990  25.4254630
  22.4116100  14.6334990  21.7944630  22.1246100  14.5214990  20.8654630
  21.9626100  13.9704990  22.3574630  29.4806100   9.4264990  19.0364630
  29.5746100   8.5734990  19.5064630  28.5386100   9.6944990  19.0324630
  27.7566100   4.9164990  20.2864630  27.2976100   4.1034990  19.9944630
  27.6706100   5.6054990  19.5964630  17.4046100  14.5584990  25.9964630
  18.2306100  14.3844990  26.4924630  17.6246100  14.8904990  25.1024630
  28.0676100  11.6514990  16.9514630  27.6536100  11.4924990  17.8234630
  28.7886100  12.3054990  17.0464630  20.0846100   3.3184990  23.5664630
  20.3186100   4.1444990  23.0954630  19.8906100   2.6144990  22.9144630
  19.2296100   8.8254990  22.7414630  18.8906100   9.7424990  22.6904630
  18.8196100   8.3684990  23.5044630  17.6146100  12.5254990  21.2934630
  16.8976100  13.1374990  21.5564630  18.0956100  12.2254990  22.0904630
  19.2396100   8.4104990  15.4034630  18.3866100   8.1184990  15.0214630
  19.6436100   7.6704990  15.9014630  12.1576100   5.0884990  15.4674630
  11.8496100   4.9154990  16.3804630  11.4936100   4.7514990  14.8304630
  11.4746100  17.5784990  25.3754630  11.8746100  17.9984990  24.5874630
  11.8526100  16.6834990  25.4964630  27.2626100  14.8164990  23.0784630
  28.0866100  14.5134990  22.6474630  27.2066100  14.4384990  23.9794630
  15.4046100  11.1254990  16.4734630  15.0936100  11.3974990  15.5864630
  14.6956100  10.6294990  16.9304630  26.6906100   6.9314990  25.4264630
  25.7926100   6.9924990  25.8114630  27.3086100   6.5734990  26.0954630
  23.7826100   5.2834990  23.0074630  24.6986100   5.5674990  22.8134630
  23.3186100   5.9914990  23.5004630  22.6796100   8.2164990  15.1804630
  22.6226100   8.8694990  15.9074630  22.2206100   8.5674990  14.3904630
  24.5136100  13.6744990  26.1344630  25.4286100  14.0144990  26.1974630
  24.1526100  13.5394990  27.0344630  27.3516100   9.3694990  21.6654630
  27.5256100   8.4554990  21.3614630  26.4526100   9.4194990  22.0494630
  16.0696100   4.6114990  26.3714630  16.0286100   4.7114990  25.3984630
  16.9606100   4.2994990  26.6304630  12.9686100  16.7204990  20.9834630
  13.5276100  17.1244990  20.2884630  12.1576100  17.2564990  21.1014630
  15.4676100   7.5894990  20.3544630  15.4166100   8.2544990  21.0704630
  16.2496100   7.7704990  19.7944630  26.3766100  15.8884990  18.1224630
  26.6476100  15.3744990  17.3344630  25.4796100  16.2544990  17.9794630
  12.8606100  10.0004990  22.9484630  12.6686100  10.7274990  23.5754630
  13.7986100   9.7344990  23.0344630  27.6026100   6.0594990  17.6764630
  27.5496100   7.0234990  17.5194630  27.1276100   5.5854990  16.9634630
  11.8036100   7.5444990  23.1184630  12.1536100   8.4294990  22.8894630
  11.9816100   7.3564990  24.0624630  12.7026100   9.6714990  16.8094630
  12.9366100   8.7234990  16.8764630  12.0426100   9.8934990  17.4974630
  25.1996100  17.2214990  24.3264630  24.5766100  16.4964990  24.1184630
  26.1056100  16.8594990  24.4094630  24.4146100   9.5154990  25.2064630
  25.2776100   9.6974990  25.6304630  23.9386100   8.8284990  25.7174630
  19.2766100   6.2904990  18.3834630  19.8266100   6.8294990  18.9864630
  19.8156100   5.5634990  18.0114630  13.4146100  14.2964990  18.8584630
  12.7226100  14.1914990  19.5424630  13.3826100  15.2064990  18.4994630
  12.0516100   4.5624990  22.9904630  11.5726100   4.3314990  23.8124630
  12.2136100   5.5274990  22.9664630  21.9246100  17.5854990  22.9794630
  22.6536100  18.1904990  23.2234630  22.1566100  16.6714990  23.2414630
  13.2526100   4.4324990  26.3894630  14.1986100   4.1974990  26.2934630
  12.6996100   3.6534990  26.1754630  26.4306100   6.0654990  22.6954630
  26.6876100   6.4644990  23.5524630  27.2166100   5.6564990  22.2784630
  20.8046100  10.6964990  20.7524630  20.0796100  10.9974990  20.1684630
  20.8546100  11.2784990  21.5374630  17.0356100   7.9204990  24.5174630
  16.8276100   6.9864990  24.3094630  17.0726100   8.0394990  25.4874630
  15.6006100   4.7594990  20.3534630  15.8746100   4.4434990  19.4684630
  15.8926100   5.6864990  20.4734630  20.1416100  10.4474990  25.7644630
  21.0496100  10.8024990  25.8534630  20.1776100   9.4714990  25.7084630
  17.2116100   5.9294990  14.1924630  16.4406100   5.3464990  14.0384630
  17.0446100   6.4904990  14.9764630  20.9676100   7.7994990  25.2014630
  21.1806100   7.7274990  24.2484630  21.7546100   7.5614990  25.7314630
  12.4426100   6.9964990  25.7774630  12.5566100   6.0334990  25.9134630
  13.1926100   7.4744990  26.1874630  18.4346100  12.0834990  23.6984630
  18.9826100  11.7364990  24.4314630  17.5316100  12.2684990  24.0264630
  18.5586100  10.9164990  19.2404630  17.9476100  11.4794990  19.7584630
  18.3646100  11.0164990  18.2864630  29.2436100  15.9294990  18.9974630
  28.2856100  16.1264990  19.0264630  29.6196100  15.9994990  19.8984630
  27.3206100   9.5454990  25.4144630  27.6926100   9.7354990  26.2994630
  27.2326100   8.5774990  25.2984630  22.1536100   2.5394990  20.4594630
  23.0936100   2.6954990  20.6844630  22.0866100   2.2354990  19.5314630
  16.2406100  16.8274990  21.6474630  16.0416100  17.5654990  22.2594630
  16.5196100  17.1884990  20.7814630  19.5796100   4.9184990  14.7384630
  19.5226100   3.9524990  14.8834630  18.6876100   5.2714990  14.5424630
  29.0086100   4.7164990  24.9434630  28.2646100   4.0904990  25.0594630
  28.6586100   5.6264990  24.8574630  29.4266100  14.2714990  21.5054630
  29.7486100  13.3834990  21.2494630  30.0356100  14.6614990  22.1664630
  23.1256100  15.4184990  24.7564630  23.6236100  14.7384990  25.2554630
  22.1666100  15.2354990  24.8244630  27.0436100   8.7284990  16.7244630
  26.6386100   8.5134990  15.8594630  27.5506100   9.5624990  16.6484630
  21.8836100   7.5134990  22.5254630  21.0806100   7.9554990  22.1804630
  22.5956100   7.5634990  21.8564630  20.3986100  15.3584990  25.1084630
  19.6426100  15.1094990  24.5384630  20.2696100  16.2684990  25.4444630
  24.1666100   4.9224990  18.6494630  24.3326100   5.8764990  18.7924630
  24.4136100   4.4234990  19.4544630  26.1746100   4.5124990  15.6454630
  25.4846100   4.2944990  14.9854630  26.3776100   3.7174990  16.1784630
  29.6636100   4.5224990  17.8894630  29.0236100   5.2594990  17.9544630
  30.2496100   4.5284990  18.6734630  27.2586100  17.1544990  21.8594630
  26.4876100  17.3914990  21.3054630  27.1066100  16.2814990  22.2744630
  30.1886100  11.6894990  20.7894630  29.8976100  11.0564990  20.1014630
  30.7946100  11.2394990  21.4114630  16.2616100   5.3744990  23.6954630
  15.7456100   4.5814990  23.4404630  16.8586100   5.6244990  22.9614630
  18.6866100   3.4464990  19.0944630  19.0026100   4.3334990  19.3604630
  17.9316100   3.5394990  18.4784630  19.3326100   5.5024990   8.0724990
  19.8066100   6.1804990   7.5484990  18.8806100   5.9304990   8.8274990
  12.4106100  15.2564990   4.7974990  12.7966100  15.8854990   4.1544990
  13.0806100  15.0314990   5.4754990  18.2386100   6.1204990   3.2224990
  19.1206100   5.6994990   3.1674990  18.3236100   7.0804990   3.0534990
  24.6276100   9.8664990   3.9444990  24.8886100  10.7254990   3.5564990
  24.7146100   9.9074990   4.9184990  24.8396100  16.0344990   2.4264990
  23.9276100  15.6774990   2.4034990  25.4436100  15.3604990   2.7994990
  11.9696100  15.6604990   9.8854990  12.3006100  16.3734990  10.4694990
  11.0336100  15.8334990   9.6574990  15.0226100   4.2414990  13.2804990
  15.2026100   3.9344990  12.3674990  14.2066100   3.8154990  13.6124990
  20.9026100   4.8834990   3.1174990  21.3776100   4.1824990   2.6264990
  21.5486100   5.5284990   3.4724990  20.4586100  16.6664990   2.0154990
  20.9636100  16.5284990   2.8424990  20.1116100  15.8074990   1.6984990
  20.9606100  12.4354990   4.2254990  21.3976100  11.9644990   4.9634990
  20.0686100  12.7264990   4.5054990  18.9986100   1.7814990   6.9494990
  19.3716100   2.3414990   6.2384990  18.8366100   2.3284990   7.7444990
  19.9956100  13.9084990   8.7644990  20.0946100  14.5474990   9.4994990
  20.5166100  14.2134990   7.9944990  12.1896100  12.2194990   6.1064990
  12.0826100  13.1014990   5.6934990  11.3126100  11.8774990   6.3764990
  16.4216100   6.9594990  11.8014990  15.5226100   6.6274990  11.6024990
  16.7436100   6.5534990  12.6314990  25.6176100   8.7324990  11.0234990
  25.6866100   9.4824990  11.6494990  25.5706100   7.8934990  11.5244990
  29.0936100  12.1854990   8.6624990  30.0376100  12.4304990   8.5784990
  29.0106100  11.4054990   9.2474990  14.4576100  14.6734990   6.7044990
  15.3426100  15.0894990   6.6704990  14.3526100  14.1964990   7.5524990
  25.0806100  12.5394990   3.4134990  25.8436100  13.0864990   3.1364990
  24.2756100  13.0944990   3.4474990  13.9466100  12.8494990  12.9534990
  14.8926100  12.9754990  13.1754990  13.5056100  12.3574990  13.6754990
  28.3366100  11.5264990   5.1024990  28.6376100  11.1934990   4.2324990
  27.8586100  10.8164990   5.5764990  29.3776100   1.9574990  10.6944990
  29.0286100   2.4194990  11.4844990  29.1616100   2.4744990   9.8914990
  19.0786100  11.5714990   9.5134990  19.2426100  12.5244990   9.3604990
  19.2976100  11.0684990   8.7034990  14.3726100   8.8604990   7.9634990
  14.5116100   9.8164990   8.1204990  15.2266100   8.3884990   8.0444990
  25.9806100   4.1484990  10.5774990  26.9186100   4.0324990  10.3244990
  25.4276100   4.1864990   9.7704990  24.8356100   6.4374990  12.3314990
  23.8656100   6.5754990  12.3304990  25.0446100   5.5924990  11.8824990
  11.3006100  10.6064990  10.8894990  12.1196100  10.0724990  10.9424990
  11.5316100  11.5424990  10.7234990  24.1746100   3.4454990  14.1564990
  23.9826100   2.7724990  13.4724990  23.3456100   3.9024990  14.4054990
  28.8976100   9.3894990  13.3164990  29.4506100  10.1194990  12.9724990
  29.4746100   8.6794990  13.6654990  20.9536100   9.1864990  13.3564990
  20.2106100   8.9904990  13.9634990  20.6276100   9.7244990  12.6054990
  21.7016100   7.1674990  11.7624990  21.5476100   7.9424990  12.3404990
  22.1426100   7.4584990  10.9374990  26.1236100  10.0964990  13.2814990
  25.6516100   9.4524990  13.8474990  27.0886100   9.9594990  13.3654990
  20.0516100  15.5894990  10.9064990  20.1656100  16.4244990  10.4074990
  19.1176100  15.5004990  11.1844990  15.3616100  14.1064990   3.2574990
  15.6916100  15.0274990   3.2744990  15.0856100  13.8764990   2.3464990
  22.6566100   2.7934990  10.3004990  23.1076100   2.1684990  10.9034990
  22.0196100   3.3354990  10.8084990  22.7756100  11.7384990   6.3244990
  23.2356100  10.8774990   6.4044990  23.3136100  12.4364990   6.7514990
  29.7146100   7.0174990   1.8214990  29.8566100   7.3904990   2.7154990
  29.4986100   6.0654990   1.8954990  15.7616100  12.5094990   5.4584990
  15.0526100  12.7044990   6.1044990  15.5726100  12.9724990   4.6164990
  24.6356100   3.4774990   2.3724990  24.4836100   3.7554990   3.2984990
  25.5336100   3.0964990   2.2884990  22.2236100  11.1094990   9.8054990
  21.3896100  11.1194990  10.3184990  22.7376100  11.9194990  10.0024990
  27.3676100  14.1194990   7.6164990  27.8666100  13.4274990   8.0954990
  27.7606100  14.9954990   7.8064990  13.4536100   8.9174990  11.4214990
  14.2286100   9.5074990  11.5194990  13.7186100   8.1094990  10.9364990
  24.1276100   4.1714990   8.5104990  23.3916100   3.7384990   8.9894990
  24.2956100   3.6954990   7.6714990  23.1416100   8.6574990  10.0014990
  24.0716100   8.6834990  10.3064990  22.8436100   9.5644990   9.7844990
  18.2446100  15.8064990   5.0264990  18.4456100  16.7514990   5.1844990
  17.6216100  15.7254990   4.2764990  23.9086100   2.9754990   5.9504990
  23.7196100   3.6084990   5.2274990  23.7996100   2.0604990   5.6194990
  12.0546100   7.2844990  13.3894990  12.4366100   6.8414990  14.1744990
  12.7706100   7.6964990  12.8654990  14.6176100   3.5114990   3.9374990
  13.7926100   3.9544990   4.2224990  15.0106100   4.0044990   3.1894990
  15.8176100  14.8524990   9.6054990  15.5676100  15.7874990   9.4584990
  16.4576100  14.5744990   8.9194990  15.6106100   9.2604990   4.1294990
  15.9436100  10.1794990   4.1864990  16.0816100   8.7014990   4.7804990
  16.0876100  10.2114990  12.0944990  16.4176100  10.5054990  11.2214990
  16.4846100   9.3454990  12.3184990  12.4686100   4.5194990   1.7814990
  13.4096100   4.7794990   1.6994990  12.2686100   4.3064990   2.7154990
  26.7086100   3.1394990   6.7924990  25.8286100   3.0324990   6.3764990
  27.1356100   2.2634990   6.8834990  22.4116100  14.6334990   3.2524990
  22.1246100  14.5214990   2.3234990  21.9626100  13.9704990   3.8154990
  17.0476100   8.3834990   8.6034990  16.8516100   9.3414990   8.6344990
  17.5066100   8.1174990   9.4264990  28.2576100   3.7694990   9.1194990
  28.6396100   4.6704990   9.1184990  27.7386100   3.6354990   8.2994990
  15.5636100   3.0784990  10.7034990  16.0846100   2.2494990  10.6714990
  15.5416100   3.4844990   9.8124990  18.3876100   3.2384990   9.3404990
  18.8796100   2.6934990   9.9884990  18.9866100   3.9124990   8.9594990
  24.3396100   6.8974990   8.2234990  24.4506100   5.9644990   8.4994990
  23.8546100   7.3874990   8.9184990  17.4046100  14.5584990   7.4544990
  18.2306100  14.3844990   7.9504990  17.6246100  14.8904990   6.5604990
  20.0846100   3.3184990   5.0244990  20.3186100   4.1444990   4.5534990
  19.8906100   2.6144990   4.3724990  19.2296100   8.8254990   4.1994990
  18.8906100   9.7424990   4.1484990  18.8196100   8.3684990   4.9624990
  17.6146100  12.5254990   2.7514990  16.8976100  13.1374990   3.0144990
  18.0956100  12.2254990   3.5484990  11.4746100  17.5784990   6.8334990
  11.8746100  17.9984990   6.0454990  11.8526100  16.6834990   6.9544990
  27.2626100  14.8164990   4.5364990  28.0866100  14.5134990   4.1054990
  27.2066100  14.4384990   5.4374990  26.6906100   6.9314990   6.8844990
  25.7926100   6.9924990   7.2694990  27.3086100   6.5734990   7.5534990
  23.7826100   5.2834990   4.4654990  24.6986100   5.5674990   4.2714990
  23.3186100   5.9914990   4.9584990  24.5136100  13.6744990   7.5924990
  25.4286100  14.0144990   7.6554990  24.1526100  13.5394990   8.4924990
  27.3516100   9.3694990   3.1234990  27.5256100   8.4554990   2.8194990
  26.4526100   9.4194990   3.5074990  12.6886100  13.0164990  10.2374990
  13.0286100  12.8214990  11.1344990  12.5246100  13.9784990  10.1534990
  16.0696100   4.6114990   7.8294990  16.0286100   4.7114990   6.8564990
  16.9606100   4.2994990   8.0884990  12.9686100  16.7204990   2.4414990
  13.5276100  17.1244990   1.7464990  12.1576100  17.2564990   2.5594990
  12.8606100  10.0004990   4.4064990  12.6686100  10.7274990   5.0334990
  13.7986100   9.7344990   4.4924990  19.9556100  11.4914990  12.1494990
  19.3786100  11.7094990  11.3904990  20.2196100  12.3154990  12.6064990
  11.8036100   7.5444990   4.5764990  12.1536100   8.4294990   4.3474990
  11.9816100   7.3564990   5.5204990  24.0306100  13.0684990  10.3224990
  23.5346100  13.2494990  11.1464990  24.9896100  13.1794990  10.4874990
  20.9876100   4.5824990  12.0744990  21.3186100   5.4444990  11.7494990
  20.7716100   4.6544990  13.0264990  25.1996100  17.2214990   5.7844990
  24.5766100  16.4964990   5.5764990  26.1056100  16.8594990   5.8674990
  24.4146100   9.5154990   6.6644990  25.2776100   9.6974990   7.0884990
  23.9386100   8.8284990   7.1754990  28.8026100   6.6184990   8.9604990
  29.5516100   6.6244990   8.3304990  28.4936100   7.5354990   9.1084990
  12.0516100   4.5624990   4.4484990  11.5726100   4.3314990   5.2704990
  12.2136100   5.5274990   4.4244990  21.9246100  17.5854990   4.4374990
  22.6536100  18.1904990   4.6814990  22.1566100  16.6714990   4.6994990
  13.2006100   1.9734990  11.7774990  12.3656100   2.1524990  11.2994990
  13.9456100   2.3954990  11.3024990  13.2526100   4.4324990   7.8474990
  14.1986100   4.1974990   7.7514990  12.6996100   3.6534990   7.6334990
  26.4306100   6.0654990   4.1534990  26.6876100   6.4644990   5.0104990
  27.2166100   5.6564990   3.7364990  16.4036100  11.0244990   8.7264990
  15.6516100  11.4814990   8.2984990  17.0126100  11.6874990   9.1104990
  17.0356100   7.9204990   5.9754990  16.8276100   6.9864990   5.7674990
  17.0726100   8.0394990   6.9454990  20.1416100  10.4474990   7.2224990
  21.0496100  10.8024990   7.3114990  20.1776100   9.4714990   7.1664990
  29.0936100   5.6964990  11.8634990  29.6156100   6.4954990  12.0834990
  28.3726100   5.9374990  11.2474990  14.0486100  11.9124990   8.0044990
  13.6626100  12.0704990   8.8894990  13.3886100  12.1314990   7.3164990
  20.9676100   7.7994990   6.6594990  21.1806100   7.7274990   5.7064990
  21.7546100   7.5614990   7.1894990  12.4426100   6.9964990   7.2354990
  12.5566100   6.0334990   7.3714990  13.1926100   7.4744990   7.6454990
  18.4346100  12.0834990   5.1564990  18.9826100  11.7364990   5.8894990
  17.5316100  12.2684990   5.4844990  28.5776100   4.5534990  14.1864990
  28.6106100   5.1334990  13.3984990  27.8206100   4.8104990  14.7504990
  28.4256100  16.5744990   8.5354990  28.9876100  17.0664990   7.9034990
  27.6766100  17.1404990   8.8154990  27.3206100   9.5454990   6.8724990
  27.6926100   9.7354990   7.7574990  27.2326100   8.5774990   6.7564990
  16.2406100  16.8274990   3.1054990  16.0416100  17.5654990   3.7174990
  16.5196100  17.1884990   2.2394990  29.0086100   4.7164990   6.4014990
  28.2646100   4.0904990   6.5174990  28.6586100   5.6264990   6.3154990
  29.4266100  14.2714990   2.9634990  29.7486100  13.3834990   2.7074990
  30.0356100  14.6614990   3.6244990  23.1256100  15.4184990   6.2144990
  23.6236100  14.7384990   6.7134990  22.1666100  15.2354990   6.2824990
  21.8836100   7.5134990   3.9834990  21.0806100   7.9554990   3.6384990
  22.5956100   7.5634990   3.3144990  20.3986100  15.3584990   6.5664990
  19.6426100  15.1094990   5.9964990  20.2696100  16.2684990   6.9024990
  27.2586100  17.1544990   3.3174990  26.4876100  17.3914990   2.7634990
  27.1066100  16.2814990   3.7324990  16.2616100   5.3744990   5.1534990
  15.7456100   4.5814990   4.8984990  16.8586100   5.6244990   4.4194990
  18.6246100   6.8394990  10.4064990  17.9316100   6.7934990  11.0964990
  19.5046100   6.8924990  10.8314990  14.0516100   6.6214990  10.3294990
  14.4686100   6.7404990   9.4524990  13.3216100   5.9734990  10.2584990
  27.9356100   9.3414990   9.5184990  28.6056100   9.7554990  10.0994990
  27.0926100   9.2494990  10.0064990   2.9524990  32.4605470  16.5574630
   3.6584990  31.8615470  16.2394630   2.2134990  32.4625470  15.9154630
   5.9454990  28.6165470  22.4864630   6.2064990  29.4755470  22.0984630
   6.0324990  28.6575470  23.4604630   8.1854990  20.8355470  17.0524630
   7.3704990  20.2995470  17.1344630   8.8384990  20.3535470  16.5054630
   2.2204990  23.6335470  21.6594630   2.6954990  22.9325470  21.1684630
   2.8664990  24.2785470  22.0144630   5.2594990  31.1495470  15.6234630
   6.0974990  31.4935470  15.2514630   5.3994990  30.8945470  16.5584630
   3.3084990  20.1525470  14.6064630   3.7504990  20.1935470  15.4794630
   2.6974990  19.3885470  14.5864630  10.9804990  20.7745470  20.1004630
  11.1854990  21.7315470  20.1174630  11.3154990  20.3825470  19.2684630
   8.0484990  29.9925470  19.4264630   8.0994990  29.3785470  20.1864630
   8.0924990  30.9165470  19.7484630   6.3984990  31.2895470  21.9554630
   7.1614990  31.8365470  21.6784630   5.5934990  31.8445470  21.9894630
   9.6544990  30.2765470  23.6444630   9.9554990  29.9435470  22.7744630
   9.1764990  29.5665470  24.1184630   5.0934990  26.8455470  20.4894630
   5.5014990  27.5615470  21.0174630   5.5884990  26.7355470  19.6514630
   3.2024990  18.4845470  19.1574630   2.7014990  17.7815470  19.6194630
   2.5774990  19.0815470  18.6974630   5.4434990  30.3775470  18.3844630
   5.0224990  30.9835470  19.0274630   6.4014990  30.3115470  18.5774630
   2.2604990  26.8665470  19.7954630   2.0394990  27.7285470  20.2034630
   3.2114990  26.6755470  19.9304630   6.2784990  26.2795470  18.1754630
   7.0494990  26.6145470  17.6734630   5.4554990  26.4885470  17.6884630
   3.5884990  24.1165470  14.7734630   4.0364990  24.9765470  14.6394630
   2.6484990  24.2705470  14.9974630   5.8634990  18.3595470  19.8684630
   5.9574990  17.3885470  19.9514630   4.9164990  18.5905470  19.7894630
   8.1014990  21.1165470  19.8304630   8.9534990  20.8745470  20.2464630
   8.1834990  21.0495470  18.8574630   4.0934990  30.4885470  24.8664630
   4.5534990  29.6275470  24.9464630   4.6314990  31.1865470  25.2934630
   3.8864990  28.0525470  17.5754630   4.3114990  28.9245470  17.7024630
   3.2154990  27.9115470  18.2734630  11.0324990  25.7675470  20.3634630
  11.1744990  26.1405470  21.2574630  10.8164990  24.8155470  20.4374630
   3.1484990  32.6615470  19.2164630   2.2044990  32.5695470  19.4584630
   3.2274990  32.7845470  18.2484630   5.7724990  18.3595470  26.7184630
   5.8024990  17.8665470  25.8724630   4.9634990  18.9095470  26.7474630
   5.9534990  22.2275470  20.9144630   5.8014990  22.5055470  21.8404630
   6.8514990  21.8465470  20.8304630   6.6434990  26.6535470  14.7344630
   5.7224990  26.7465470  15.0524630   6.7134990  25.8595470  14.1664630
   5.2264990  21.7255470  24.4924630   5.0374990  22.3585470  23.7694630
   5.1174990  20.8105470  24.1614630   2.9184990  23.5715470  17.5264630
   2.9954990  23.1835470  16.6304630   3.7624990  23.4515470  18.0074630
   7.8654990  31.1655470  14.9654630   8.3774990  30.6835470  15.6464630
   7.5584990  30.5355470  14.2814630   8.0264990  21.8895470  25.3344630
   7.1464990  21.7825470  24.9184630   8.4534990  21.0135470  25.4254630
   3.7294990  33.3835470  21.7944630   3.4424990  33.2715470  20.8654630
   3.2804990  32.7205470  22.3574630  10.7984990  28.1765470  19.0364630
  10.8924990  27.3235470  19.5064630   9.8564990  28.4445470  19.0324630
   9.0744990  23.6665470  20.2864630   8.6154990  22.8535470  19.9944630
   8.9884990  24.3555470  19.5964630   9.3854990  30.4015470  16.9514630
   8.9714990  30.2425470  17.8234630  10.1064990  31.0555470  17.0464630
   6.2394990  18.9555470  17.3894630   6.1354990  18.0725470  16.9804630
   6.1874990  18.8735470  18.3634630   8.0084990  25.6815470  25.4264630
   7.1104990  25.7425470  25.8114630   8.6264990  25.3235470  26.0954630
   5.1004990  24.0335470  23.0074630   6.0164990  24.3175470  22.8134630
   4.6364990  24.7415470  23.5004630   3.9974990  26.9665470  15.1804630
   3.9404990  27.6195470  15.9074630   3.5384990  27.3175470  14.3904630
   5.8314990  32.4245470  26.1344630   6.7464990  32.7645470  26.1974630
   5.4704990  32.2895470  27.0344630   8.6694990  28.1195470  21.6654630
   8.8434990  27.2055470  21.3614630   7.7704990  28.1695470  22.0494630
   4.4364990  21.0015470  17.1394630   4.9164990  20.1765470  17.3574630
   4.9994990  21.7725470  17.3564630   8.9204990  24.8095470  17.6764630
   8.8674990  25.7735470  17.5194630   8.4454990  24.3355470  16.9634630
   5.7324990  28.2655470  25.2064630   6.5954990  28.4475470  25.6304630
   5.2564990  27.5785470  25.7174630  10.9794990  18.4815470  21.7834630
  10.8964990  19.3115470  21.2714630  10.1254990  18.0045470  21.7734630
   7.7484990  24.8155470  22.6954630   8.0054990  25.2145470  23.5524630
   8.5344990  24.4065470  22.2784630   9.6844990  19.7235470  25.0874630
  10.1234990  19.2075470  25.7944630   9.7584990  19.2425470  24.2384630
   2.2854990  26.5495470  25.2014630   2.4984990  26.4775470  24.2484630
   3.0724990  26.3115470  25.7314630   8.6384990  28.2955470  25.4144630
   9.0104990  28.4855470  26.2994630   8.5504990  27.3275470  25.2984630
   3.4714990  21.2895470  20.4594630   4.4114990  21.4455470  20.6844630
   3.4044990  20.9855470  19.5314630   5.5284990  19.4985470  22.6554630
   5.4994990  19.2135470  21.7194630   6.0194990  18.8365470  23.1834630
  10.3264990  23.4665470  24.9434630   9.5824990  22.8405470  25.0594630
   9.9764990  24.3765470  24.8574630  10.7444990  33.0215470  21.5054630
  11.0664990  32.1335470  21.2494630  11.3534990  33.4115470  22.1664630
   9.9274990  19.2125470  15.9414630  10.0664990  19.4755470  15.0084630
  10.1954990  18.2795470  16.0614630   8.3614990  27.4785470  16.7244630
   7.9564990  27.2635470  15.8594630   8.8684990  28.3125470  16.6484630
   3.2014990  26.2635470  22.5254630   2.3984990  26.7055470  22.1804630
   3.9134990  26.3135470  21.8564630   5.4844990  23.6725470  18.6494630
   5.6504990  24.6265470  18.7924630   5.7314990  23.1735470  19.4544630
   7.4924990  23.2625470  15.6454630   6.8024990  23.0445470  14.9854630
   7.6954990  22.4675470  16.1784630  10.9814990  23.2725470  17.8894630
  10.3414990  24.0095470  17.9544630  11.5674990  23.2785470  18.6734630
  11.5064990  30.4395470  20.7894630  11.2154990  29.8065470  20.1014630
  12.1124990  29.9895470  21.4114630   1.7814990  19.9345470  21.9514630
   2.3164990  20.4315470  21.2984630   2.2514990  19.1135470  22.2014630
   5.9454990  28.6165470   3.9444990   6.2064990  29.4755470   3.5564990
   6.0324990  28.6575470   4.9184990   2.2204990  23.6335470   3.1174990
   2.6954990  22.9325470   2.6264990   2.8664990  24.2785470   3.4724990
   6.9354990  27.4825470  11.0234990   7.0044990  28.2325470  11.6494990
   6.8884990  26.6435470  11.5244990  10.4114990  30.9355470   8.6624990
  11.3554990  31.1805470   8.5784990  10.3284990  30.1555470   9.2474990
   6.3984990  31.2895470   3.4134990   7.1614990  31.8365470   3.1364990
   5.5934990  31.8445470   3.4474990   9.6544990  30.2765470   5.1024990
   9.9554990  29.9435470   4.2324990   9.1764990  29.5665470   5.5764990
  10.6954990  20.7075470  10.6944990  10.3464990  21.1695470  11.4844990
  10.4794990  21.2245470   9.8914990   8.4424990  18.8085470   9.5174990
   7.6944990  19.0375470   8.9284990   8.3314990  19.2615470  10.3774990
   7.2984990  22.8985470  10.5774990   8.2364990  22.7825470  10.3244990
   6.7454990  22.9365470   9.7704990  10.2694990  31.2865470  13.2534990
  10.7874990  30.8515470  13.9614990   9.5284990  31.7865470  13.6534990
   6.1534990  25.1875470  12.3314990   5.1834990  25.3255470  12.3304990
   6.3624990  24.3425470  11.8824990   5.4924990  22.1955470  14.1564990
   5.3004990  21.5225470  13.4724990   4.6634990  22.6525470  14.4054990
  10.2154990  28.1395470  13.3164990  10.7684990  28.8695470  12.9724990
  10.7924990  27.4295470  13.6654990   3.0194990  25.9175470  11.7624990
   2.8654990  26.6925470  12.3404990   3.4604990  26.2085470  10.9374990
   7.4414990  28.8465470  13.2814990   6.9694990  28.2025470  13.8474990
   8.4064990  28.7095470  13.3654990   3.9744990  21.5435470  10.3004990
   4.4254990  20.9185470  10.9034990   3.3374990  22.0855470  10.8084990
   3.4214990  19.7595470   8.0354990   3.4914990  20.4065470   8.7674990
   2.9244990  20.1605470   7.2934990   4.0934990  30.4885470   6.3244990
   4.5534990  29.6275470   6.4044990   4.6314990  31.1865470   6.7514990
   9.4424990  32.5435470  10.9564990   9.8644990  32.0435470  11.6844990
   9.7504990  32.1915470  10.0974990  11.0324990  25.7675470   1.8214990
  11.1744990  26.1405470   2.7154990  10.8164990  24.8155470   1.8954990
   5.7724990  18.3595470   8.1764990   5.8024990  17.8665470   7.3304990
   4.9634990  18.9095470   8.2054990  10.0244990  18.0145470  11.8104990
  10.3674990  18.8645470  12.1534990  10.0274990  18.0325470  10.8314990
   5.9534990  22.2275470   2.3724990   5.8014990  22.5055470   3.2984990
   6.8514990  21.8465470   2.2884990   3.5414990  29.8595470   9.8054990
   2.7074990  29.8695470  10.3184990   4.0554990  30.6695470  10.0024990
   5.4454990  22.9215470   8.5104990   4.7094990  22.4885470   8.9894990
   5.6134990  22.4455470   7.6714990   4.4594990  27.4075470  10.0014990
   5.3894990  27.4335470  10.3064990   4.1614990  28.3145470   9.7844990
   5.2264990  21.7255470   5.9504990   5.0374990  22.3585470   5.2274990
   5.1174990  20.8105470   5.6194990   7.5954990  20.4435470  11.9104990
   7.2294990  21.2235470  11.4444990   6.8834990  20.0035470  12.4184990
   8.0264990  21.8895470   6.7924990   7.1464990  21.7825470   6.3764990
   8.4534990  21.0135470   6.8834990   9.7664990  20.5025470  13.3974990
   9.7634990  21.3375470  13.9084990   9.0514990  20.5255470  12.7294990
   3.7294990  33.3835470   3.2524990   3.4424990  33.2715470   2.3234990
   3.2804990  32.7205470   3.8154990   9.5754990  22.5195470   9.1194990
   9.9574990  23.4205470   9.1184990   9.0564990  22.3855470   8.2994990
   5.6574990  25.6475470   8.2234990   5.7684990  24.7145470   8.4994990
   5.1724990  26.1375470   8.9184990   8.0084990  25.6815470   6.8844990
   7.1104990  25.7425470   7.2694990   8.6264990  25.3235470   7.5534990
   5.1004990  24.0335470   4.4654990   6.0164990  24.3175470   4.2714990
   4.6364990  24.7415470   4.9584990   5.8314990  32.4245470   7.5924990
   6.7464990  32.7645470   7.6554990   5.4704990  32.2895470   8.4924990
   8.6694990  28.1195470   3.1234990   8.8434990  27.2055470   2.8194990
   7.7704990  28.1695470   3.5074990   5.3484990  31.8185470  10.3224990
   4.8524990  31.9995470  11.1464990   6.3074990  31.9295470  10.4874990
   2.3054990  23.3325470  12.0744990   2.6364990  24.1945470  11.7494990
   2.0894990  23.4045470  13.0264990   5.7324990  28.2655470   6.6644990
   6.5954990  28.4475470   7.0884990   5.2564990  27.5785470   7.1754990
  10.1204990  25.3685470   8.9604990  10.8694990  25.3745470   8.3304990
   9.8114990  26.2855470   9.1084990  10.9794990  18.4815470   3.2414990
  10.8964990  19.3115470   2.7294990  10.1254990  18.0045470   3.2314990
   7.7484990  24.8155470   4.1534990   8.0054990  25.2145470   5.0104990
   8.5344990  24.4065470   3.7364990   4.5054990  31.5455470  12.8574990
   3.6014990  31.8435470  13.0874990   4.9054990  31.0915470  13.6264990
   9.6844990  19.7235470   6.5454990  10.1234990  19.2075470   7.2524990
   9.7584990  19.2425470   5.6964990  10.4114990  24.4465470  11.8634990
  10.9334990  25.2455470  12.0834990   9.6904990  24.6875470  11.2474990
   2.2854990  26.5495470   6.6594990   2.4984990  26.4775470   5.7064990
   3.0724990  26.3115470   7.1894990   9.8954990  23.3035470  14.1864990
   9.9284990  23.8835470  13.3984990   9.1384990  23.5605470  14.7504990
   8.6384990  28.2955470   6.8724990   9.0104990  28.4855470   7.7574990
   8.5504990  27.3275470   6.7564990   5.5284990  19.4985470   4.1134990
   5.4994990  19.2135470   3.1774990   6.0194990  18.8365470   4.6414990
  10.3264990  23.4665470   6.4014990   9.5824990  22.8405470   6.5174990
   9.9764990  24.3765470   6.3154990  10.7444990  33.0215470   2.9634990
  11.0664990  32.1335470   2.7074990  11.3534990  33.4115470   3.6244990
   3.2014990  26.2635470   3.9834990   2.3984990  26.7055470   3.6384990
   3.9134990  26.3135470   3.3144990   5.0124990  19.6455470  12.4244990
   5.0584990  18.7715470  11.9864990   4.3494990  19.6165470  13.1424990
   1.7814990  19.9345470   3.4094990   2.3164990  20.4315470   2.7564990
   2.2514990  19.1135470   3.6594990   9.2534990  28.0915470   9.5184990
   9.9234990  28.5055470  10.0994990   8.4104990  27.9995470  10.0064990
   2.9524990  13.7104990  16.5574630   3.6584990  13.1114990  16.2394630
   2.2134990  13.7124990  15.9154630   5.9454990   9.8664990  22.4864630
   6.2064990  10.7254990  22.0984630   6.0324990   9.9074990  23.4604630
   6.1574990  16.0344990  20.9684630   5.2454990  15.6774990  20.9454630
   6.7614990  15.3604990  21.3414630   2.2204990   4.8834990  21.6594630
   2.6954990   4.1824990  21.1684630   2.8664990   5.5284990  22.0144630
   5.2594990  12.3994990  15.6234630   6.0974990  12.7434990  15.2514630
   5.3994990  12.1444990  16.5584630   8.0484990  11.2424990  19.4264630
   8.0994990  10.6284990  20.1864630   8.0924990  12.1664990  19.7484630
   6.3984990  12.5394990  21.9554630   7.1614990  13.0864990  21.6784630
   5.5934990  13.0944990  21.9894630   9.6544990  11.5264990  23.6444630
   9.9554990  11.1934990  22.7744630   9.1764990  10.8164990  24.1184630
   5.0934990   8.0954990  20.4894630   5.5014990   8.8114990  21.0174630
   5.5884990   7.9854990  19.6514630   5.4434990  11.6274990  18.3844630
   5.0224990  12.2334990  19.0274630   6.4014990  11.5614990  18.5774630
   2.2604990   8.1164990  19.7954630   2.0394990   8.9784990  20.2034630
   3.2114990   7.9254990  19.9304630   6.2784990   7.5294990  18.1754630
   7.0494990   7.8644990  17.6734630   5.4554990   7.7384990  17.6884630
   3.5884990   5.3664990  14.7734630   4.0364990   6.2264990  14.6394630
   2.6484990   5.5204990  14.9974630   8.1014990   2.3664990  19.8304630
   8.9534990   2.1244990  20.2464630   8.1834990   2.2994990  18.8574630
   4.0934990  11.7384990  24.8664630   4.5534990  10.8774990  24.9464630
   4.6314990  12.4364990  25.2934630   3.8864990   9.3024990  17.5754630
   4.3114990  10.1744990  17.7024630   3.2154990   9.1614990  18.2734630
  11.0324990   7.0174990  20.3634630  11.1744990   7.3904990  21.2574630
  10.8164990   6.0654990  20.4374630   3.1484990  13.9114990  19.2164630
   2.2044990  13.8194990  19.4584630   3.2274990  14.0344990  18.2484630
   8.1574990  13.9154990  19.8624630   7.7474990  14.6744990  19.4004630
   9.0674990  14.1524990  20.1354630   5.9534990   3.4774990  20.9144630
   5.8014990   3.7554990  21.8404630   6.8514990   3.0964990  20.8304630
   6.6434990   7.9034990  14.7344630   5.7224990   7.9964990  15.0524630
   6.7134990   7.1094990  14.1664630   8.6854990  14.1194990  26.1584630
   9.1844990  13.4274990  26.6374630   9.0784990  14.9954990  26.3484630
   5.2264990   2.9754990  24.4924630   5.0374990   3.6084990  23.7694630
   5.1174990   2.0604990  24.1614630   2.9184990   4.8214990  17.5264630
   2.9954990   4.4334990  16.6304630   3.7624990   4.7014990  18.0074630
   7.8654990  12.4154990  14.9654630   8.3774990  11.9334990  15.6464630
   7.5584990  11.7854990  14.2814630   8.0264990   3.1394990  25.3344630
   7.1464990   3.0324990  24.9184630   8.4534990   2.2634990  25.4254630
   3.7294990  14.6334990  21.7944630   3.4424990  14.5214990  20.8654630
   3.2804990  13.9704990  22.3574630  10.7984990   9.4264990  19.0364630
  10.8924990   8.5734990  19.5064630   9.8564990   9.6944990  19.0324630
   9.0744990   4.9164990  20.2864630   8.6154990   4.1034990  19.9944630
   8.9884990   5.6054990  19.5964630   9.3854990  11.6514990  16.9514630
   8.9714990  11.4924990  17.8234630  10.1064990  12.3054990  17.0464630
   8.5804990  14.8164990  23.0784630   9.4044990  14.5134990  22.6474630
   8.5244990  14.4384990  23.9794630   8.0084990   6.9314990  25.4264630
   7.1104990   6.9924990  25.8114630   8.6264990   6.5734990  26.0954630
   5.1004990   5.2834990  23.0074630   6.0164990   5.5674990  22.8134630
   4.6364990   5.9914990  23.5004630   3.9974990   8.2164990  15.1804630
   3.9404990   8.8694990  15.9074630   3.5384990   8.5674990  14.3904630
   5.8314990  13.6744990  26.1344630   6.7464990  14.0144990  26.1974630
   5.4704990  13.5394990  27.0344630   8.6694990   9.3694990  21.6654630
   8.8434990   8.4554990  21.3614630   7.7704990   9.4194990  22.0494630
   7.6944990  15.8884990  18.1224630   7.9654990  15.3744990  17.3344630
   6.7974990  16.2544990  17.9794630   8.9204990   6.0594990  17.6764630
   8.8674990   7.0234990  17.5194630   8.4454990   5.5854990  16.9634630
   6.5174990  17.2214990  24.3264630   5.8944990  16.4964990  24.1184630
   7.4234990  16.8594990  24.4094630   5.7324990   9.5154990  25.2064630
   6.5954990   9.6974990  25.6304630   5.2564990   8.8284990  25.7174630
   3.2424990  17.5854990  22.9794630   3.9714990  18.1904990  23.2234630
   3.4744990  16.6714990  23.2414630   7.7484990   6.0654990  22.6954630
   8.0054990   6.4644990  23.5524630   8.5344990   5.6564990  22.2784630
   2.2854990   7.7994990  25.2014630   2.4984990   7.7274990  24.2484630
   3.0724990   7.5614990  25.7314630  10.5614990  15.9294990  18.9974630
   9.6034990  16.1264990  19.0264630  10.9374990  15.9994990  19.8984630
   8.6384990   9.5454990  25.4144630   9.0104990   9.7354990  26.2994630
   8.5504990   8.5774990  25.2984630   3.4714990   2.5394990  20.4594630
   4.4114990   2.6954990  20.6844630   3.4044990   2.2354990  19.5314630
  10.3264990   4.7164990  24.9434630   9.5824990   4.0904990  25.0594630
   9.9764990   5.6264990  24.8574630  10.7444990  14.2714990  21.5054630
  11.0664990  13.3834990  21.2494630  11.3534990  14.6614990  22.1664630
   4.4434990  15.4184990  24.7564630   4.9414990  14.7384990  25.2554630
   3.4844990  15.2354990  24.8244630   8.3614990   8.7284990  16.7244630
   7.9564990   8.5134990  15.8594630   8.8684990   9.5624990  16.6484630
   3.2014990   7.5134990  22.5254630   2.3984990   7.9554990  22.1804630
   3.9134990   7.5634990  21.8564630   5.8204990  16.6934990  16.2364630
   5.2784990  16.7924990  15.4274630   6.6174990  16.1634990  16.0324630
   5.4844990   4.9224990  18.6494630   5.6504990   5.8764990  18.7924630
   5.7314990   4.4234990  19.4544630   8.1654990  15.1564990  15.5724630
   8.7174990  15.4704990  14.8264630   7.9544990  14.2094990  15.4454630
   7.4924990   4.5124990  15.6454630   6.8024990   4.2944990  14.9854630
   7.6954990   3.7174990  16.1784630  10.9814990   4.5224990  17.8894630
  10.3414990   5.2594990  17.9544630  11.5674990   4.5284990  18.6734630
   8.5764990  17.1544990  21.8594630   7.8054990  17.3914990  21.3054630
   8.4244990  16.2814990  22.2744630  11.5064990  11.6894990  20.7894630
  11.2154990  11.0564990  20.1014630  12.1124990  11.2394990  21.4114630
   5.9454990   9.8664990   3.9444990   6.2064990  10.7254990   3.5564990
   6.0324990   9.9074990   4.9184990   6.1574990  16.0344990   2.4264990
   5.2454990  15.6774990   2.4034990   6.7614990  15.3604990   2.7994990
   7.9584990  15.9334990  11.2264990   8.5074990  16.7004990  11.4884990
   8.5244990  15.1384990  11.1534990   2.2204990   4.8834990   3.1174990
   2.6954990   4.1824990   2.6264990   2.8664990   5.5284990   3.4724990
   6.9354990   8.7324990  11.0234990   7.0044990   9.4824990  11.6494990
   6.8884990   7.8934990  11.5244990  10.4114990  12.1854990   8.6624990
  11.3554990  12.4304990   8.5784990  10.3284990  11.4054990   9.2474990
   6.3984990  12.5394990   3.4134990   7.1614990  13.0864990   3.1364990
   5.5934990  13.0944990   3.4474990   9.6544990  11.5264990   5.1024990
   9.9554990  11.1934990   4.2324990   9.1764990  10.8164990   5.5764990
  10.6954990   1.9574990  10.6944990  10.3464990   2.4194990  11.4844990
  10.4794990   2.4744990   9.8914990   4.6964990  16.3144990  13.8874990
   5.1244990  16.5504990  13.0384990   4.3724990  15.3914990  13.8434990
   7.2984990   4.1484990  10.5774990   8.2364990   4.0324990  10.3244990
   6.7454990   4.1864990   9.7704990  10.2694990  12.5364990  13.2534990
  10.7874990  12.1014990  13.9614990   9.5284990  13.0364990  13.6534990
   6.1534990   6.4374990  12.3314990   5.1834990   6.5754990  12.3304990
   6.3624990   5.5924990  11.8824990   5.4924990   3.4454990  14.1564990
   5.3004990   2.7724990  13.4724990   4.6634990   3.9024990  14.4054990
  10.2154990   9.3894990  13.3164990  10.7684990  10.1194990  12.9724990
  10.7924990   8.6794990  13.6654990   3.0194990   7.1674990  11.7624990
   2.8654990   7.9424990  12.3404990   3.4604990   7.4584990  10.9374990
   7.4414990  10.0964990  13.2814990   6.9694990   9.4524990  13.8474990
   8.4064990   9.9594990  13.3654990   3.9744990   2.7934990  10.3004990
   4.4254990   2.1684990  10.9034990   3.3374990   3.3354990  10.8084990
   4.0934990  11.7384990   6.3244990   4.5534990  10.8774990   6.4044990
   4.6314990  12.4364990   6.7514990   9.4424990  13.7934990  10.9564990
   9.8644990  13.2934990  11.6844990   9.7504990  13.4414990  10.0974990
  11.0324990   7.0174990   1.8214990  11.1744990   7.3904990   2.7154990
  10.8164990   6.0654990   1.8954990   5.9534990   3.4774990   2.3724990
   5.8014990   3.7554990   3.2984990   6.8514990   3.0964990   2.2884990
   3.5414990  11.1094990   9.8054990   2.7074990  11.1194990  10.3184990
   4.0554990  11.9194990  10.0024990   8.6854990  14.1194990   7.6164990
   9.1844990  13.4274990   8.0954990   9.0784990  14.9954990   7.8064990
   5.4454990   4.1714990   8.5104990   4.7094990   3.7384990   8.9894990
   5.6134990   3.6954990   7.6714990   4.4594990   8.6574990  10.0014990
   5.3894990   8.6834990  10.3064990   4.1614990   9.5644990   9.7844990
   5.2264990   2.9754990   5.9504990   5.0374990   3.6084990   5.2274990
   5.1174990   2.0604990   5.6194990   8.0264990   3.1394990   6.7924990
   7.1464990   3.0324990   6.3764990   8.4534990   2.2634990   6.8834990
   3.7294990  14.6334990   3.2524990   3.4424990  14.5214990   2.3234990
   3.2804990  13.9704990   3.8154990   9.5754990   3.7694990   9.1194990
   9.9574990   4.6704990   9.1184990   9.0564990   3.6354990   8.2994990
   5.6574990   6.8974990   8.2234990   5.7684990   5.9644990   8.4994990
   5.1724990   7.3874990   8.9184990   8.5804990  14.8164990   4.5364990
   9.4044990  14.5134990   4.1054990   8.5244990  14.4384990   5.4374990
   8.0084990   6.9314990   6.8844990   7.1104990   6.9924990   7.2694990
   8.6264990   6.5734990   7.5534990   5.1004990   5.2834990   4.4654990
   6.0164990   5.5674990   4.2714990   4.6364990   5.9914990   4.9584990
   5.8314990  13.6744990   7.5924990   6.7464990  14.0144990   7.6554990
   5.4704990  13.5394990   8.4924990   8.6694990   9.3694990   3.1234990
   8.8434990   8.4554990   2.8194990   7.7704990   9.4194990   3.5074990
  10.0294990  15.9344990  13.7794990  10.4624990  16.1734990  14.6244990
  10.0484990  16.7034990  13.1744990   5.3484990  13.0684990  10.3224990
   4.8524990  13.2494990  11.1464990   6.3074990  13.1794990  10.4874990
   2.3054990   4.5824990  12.0744990   2.6364990   5.4444990  11.7494990
   2.0894990   4.6544990  13.0264990   6.5174990  17.2214990   5.7844990
   5.8944990  16.4964990   5.5764990   7.4234990  16.8594990   5.8674990
   5.7324990   9.5154990   6.6644990   6.5954990   9.6974990   7.0884990
   5.2564990   8.8284990   7.1754990  10.1204990   6.6184990   8.9604990
  10.8694990   6.6244990   8.3304990   9.8114990   7.5354990   9.1084990
   3.2424990  17.5854990   4.4374990   3.9714990  18.1904990   4.6814990
   3.4744990  16.6714990   4.6994990   7.7484990   6.0654990   4.1534990
   8.0054990   6.4644990   5.0104990   8.5344990   5.6564990   3.7364990
   4.5054990  12.7954990  12.8574990   3.6014990  13.0934990  13.0874990
   4.9054990  12.3414990  13.6264990  10.4114990   5.6964990  11.8634990
  10.9334990   6.4954990  12.0834990   9.6904990   5.9374990  11.2474990
   2.2854990   7.7994990   6.6594990   2.4984990   7.7274990   5.7064990
   3.0724990   7.5614990   7.1894990   9.8954990   4.5534990  14.1864990
   9.9284990   5.1334990  13.3984990   9.1384990   4.8104990  14.7504990
   9.7434990  16.5744990   8.5354990  10.3054990  17.0664990   7.9034990
   8.9944990  17.1404990   8.8154990   8.6384990   9.5454990   6.8724990
   9.0104990   9.7354990   7.7574990   8.5504990   8.5774990   6.7564990
  10.3264990   4.7164990   6.4014990   9.5824990   4.0904990   6.5174990
   9.9764990   5.6264990   6.3154990  10.7444990  14.2714990   2.9634990
  11.0664990  13.3834990   2.7074990  11.3534990  14.6614990   3.6244990
   5.5034990  17.2694990  11.0954990   5.1204990  17.4484990  10.2124990
   6.2814990  16.6824990  11.0014990   4.4434990  15.4184990   6.2144990
   4.9414990  14.7384990   6.7134990   3.4844990  15.2354990   6.2824990
   3.2014990   7.5134990   3.9834990   2.3984990   7.9554990   3.6384990
   3.9134990   7.5634990   3.3144990   8.5764990  17.1544990   3.3174990
   7.8054990  17.3914990   2.7634990   8.4244990  16.2814990   3.7324990
   9.2534990   9.3414990   9.5184990   9.9234990   9.7554990  10.0994990
   8.4104990   9.2494990  10.0064990
  41.4512200  35.1650460  28.4999620  90.0000000  90.0000000  90.0000000
