; File PPI.top was generated by MAPLE parmfit
; This is a standalone topology file
[ defaults ]
; nbfunc        comb-rule       gen-pairs       fudgeLJ fudgeQQ
1               2               yes             0.5     0.83333333

[ atomtypes ]
; name    at.num    mass    charge ptype  sigma      epsilon
ca              6   12.011000  0.00000000  A    0.33152123     0.4133792
cc              6   12.011000  0.00000000  A    0.33152123     0.4133792
cd              6   12.011000  0.00000000  A    0.33152123     0.4133792
ss             16   32.060000  0.00000000  A    0.35324134     1.1815616
c3              6   12.011000  0.00000000  A    0.33977095     0.4510352
nc              7   14.007000  0.00000000  A    0.33841679     0.3937144
ha              1    1.008000  0.00000000  A    0.26254785     0.0673624
h4              1    1.008000  0.00000000  A    0.25363887     0.0673624
hc              1    1.008000  0.00000000  A    0.26001770     0.0870272

[ moleculetype ]
; Name            nrexcl
MOL             3

[ atoms ]
; nr       type  resnr residue  atom   cgnr    charge       mass
; residue    1 MOL rtp MOL q 0.0
    1         ca      1     MOL      C      1  -0.06580000   12.011000
    2         ca      1     MOL     C1      2  -0.19300000   12.011000
    3         ca      1     MOL     C2      3  -0.01030000   12.011000
    4         ca      1     MOL     C3      4  -0.06880000   12.011000
    5         ca      1     MOL     C4      5  -0.18900000   12.011000
    6         ca      1     MOL     C5      6  -0.00930000   12.011000
    7         cc      1     MOL     C6      7  -0.18220000   12.011000
    8         cd      1     MOL     C7      8  0.00840000   12.011000
    9         ss      1     MOL      S      9  0.14440000   32.060000
   10         cc      1     MOL     C8     10  -0.18120000   12.011000
   11         cd      1     MOL     C9     11  -0.18740000   12.011000
   12         ss      1     MOL     S1     12  0.12140000   32.060000
   13         c3      1     MOL    C10     13  -0.05580000   12.011000
   14         c3      1     MOL    C11     14  -0.05580000   12.011000
   15         cd      1     MOL    C12     15  -0.19380000   12.011000
   16         cc      1     MOL    C13     16  -0.13500000   12.011000
   17         cc      1     MOL    C14     17  -0.09100000   12.011000
   18         cd      1     MOL    C15     18  -0.21900000   12.011000
   19         ss      1     MOL     S2     19  0.32800000   32.060000
   20         ca      1     MOL    C16     20  0.05000000   12.011000
   21         ca      1     MOL    C17     21  -0.06400000   12.011000
   22         ca      1     MOL    C18     22  -0.07500000   12.011000
   23         ca      1     MOL    C19     23  -0.06700000   12.011000
   24         ca      1     MOL    C20     24  -0.09600000   12.011000
   25         ca      1     MOL    C21     25  -0.10700000   12.011000
   26         nc      1     MOL      N     26  -0.27050000   14.007000
   27         ss      1     MOL     S3     27  0.52600000   32.060000
   28         nc      1     MOL     N1     28  -0.27650000   14.007000
   29         ha      1     MOL      H     29  0.20600000    1.008000
   30         ha      1     MOL     H1     30  0.20500000    1.008000
   31         h4      1     MOL     H2     31  0.22000000    1.008000
   32         hc      1     MOL     H3     32  0.05036700    1.008000
   33         hc      1     MOL     H4     33  0.05036700    1.008000
   34         hc      1     MOL     H5     34  0.05036700    1.008000
   35         hc      1     MOL     H6     35  0.05070000    1.008000
   36         hc      1     MOL     H7     36  0.05070000    1.008000
   37         hc      1     MOL     H8     37  0.05070000    1.008000
   38         ha      1     MOL     H9     38  0.14300000    1.008000
   39         ha      1     MOL    H10     39  0.15100000    1.008000
   40         ha      1     MOL    H11     40  0.13900000    1.008000
   41         ha      1     MOL    H12     41  0.12400000    1.008000
   42         ha      1     MOL    H13     42  0.12600000    1.008000

[ bonds ]
; ai     aj funct         c0         c1
     1      2     1     0.14212 257466.872968
     1      6     1     0.14066 280246.396289
     1      7     1     0.14347 236952.016248
     2      3     1     0.13936 287011.485154
     2      9     1     0.17561 144943.503999
     3      4     1     0.14090 275930.441703
     3     14     1     0.15039 226094.847007
     4      5     1     0.14218 260351.897719
     4     10     1     0.14430 244305.526097
     5      6     1     0.13926 290916.135240
     5     12     1     0.17465 155116.104761
     6     13     1     0.15006 228898.290721
     7      8     1     0.13622 420381.539114
     7     29     1     0.10867 330445.652868
     8      9     1     0.17553 152546.121954
     8     15     1     0.14561 238415.269612
    10     11     1     0.13502 462246.353441
    10     30     1     0.10864 328964.704757
    11     12     1     0.17327 177215.327623
    11     31     1     0.10829 346539.505152
    13     32     1     0.10964 301157.550493
    13     33     1     0.10932 307682.207879
    13     34     1     0.10964 301120.089194
    14     35     1     0.10925 308828.101816
    14     36     1     0.10972 300929.948093
    14     37     1     0.10972 300415.172584
    15     16     1     0.13749 377038.316818
    15     19     1     0.17322 173822.713797
    16     17     1     0.14185 291798.899028
    16     38     1     0.10848 332948.412556
    17     18     1     0.13771 354583.020561
    17     39     1     0.10850 340391.502056
    18     19     1     0.17419 164154.087491
    18     20     1     0.14646 218879.937396
    20     21     1     0.14418 262277.811830
    20     25     1     0.13822 347505.077787
    21     22     1     0.14496 218567.017678
    21     26     1     0.13309 365292.057081
    22     23     1     0.14234 307339.668574
    22     28     1     0.13331 347763.445163
    23     24     1     0.13604 416854.283180
    23     40     1     0.10847 341522.047805
    24     25     1     0.14185 277717.878001
    24     41     1     0.10873 327929.997318
    25     42     1     0.10848 328159.036679
    26     27     1     0.16186 207041.927965
    27     28     1     0.16183 212398.128783

[ pairs ]
; ai     aj funct
     1      4     1
     1     12     1
     1     14     1
     1     15     1
     1     32     1
     1     33     1
     1     34     1
     2      5     1
     2     10     1
     2     13     1
     2     15     1
     2     29     1
     2     35     1
     2     36     1
     2     37     1
     3      6     1
     3      7     1
     3      8     1
     3     11     1
     3     12     1
     3     30     1
     4      9     1
     4     13     1
     4     31     1
     4     35     1
     4     36     1
     4     37     1
     5      7     1
     5     14     1
     5     30     1
     5     31     1
     5     32     1
     5     33     1
     5     34     1
     6      8     1
     6      9     1
     6     10     1
     6     11     1
     6     29     1
     7     13     1
     7     16     1
     7     19     1
     8     17     1
     8     18     1
     8     38     1
     9     14     1
     9     16     1
     9     19     1
     9     29     1
    10     14     1
    12     13     1
    12     30     1
    15     20     1
    15     29     1
    15     39     1
    16     20     1
    17     21     1
    17     25     1
    18     22     1
    18     24     1
    18     26     1
    18     38     1
    18     42     1
    19     21     1
    19     25     1
    19     38     1
    19     39     1
    20     23     1
    20     27     1
    20     28     1
    20     39     1
    20     41     1
    21     24     1
    21     40     1
    21     42     1
    22     25     1
    22     41     1
    23     26     1
    23     27     1
    23     42     1
    24     28     1
    25     26     1
    25     40     1
    28     40     1
    30     31     1
    38     39     1
    40     41     1
    41     42     1

[ angles ]
; ai     aj     ak funct         c0         c1
     2      1      6     1  120.203911    891.569804
     2      1      7     1  112.067845    781.644065
     6      1      7     1  127.728244    886.895893
     1      2      3     1  122.835606    719.604838
     1      2      9     1  110.216182    634.922431
     3      2      9     1  126.948211    798.345165
     2      3      4     1  117.102276    567.289127
     2      3     14     1  122.147928    556.900061
     4      3     14     1  120.749795    561.370702
     3      4      5     1  119.828325    926.562603
     3      4     10     1  128.653177    826.724155
     5      4     10     1  111.518498    741.353090
     4      5      6     1  123.156140    796.630023
     4      5     12     1  110.511071    762.637865
     6      5     12     1  126.332789    879.829544
     1      6      5     1  116.873732    532.343415
     1      6     13     1  120.385869    532.050218
     5      6     13     1  122.740398    529.472615
     1      7      8     1  114.143192    557.194501
     1      7     29     1  122.727805    244.299946
     8      7     29     1  123.128999    249.026093
     7      8      9     1  111.526405    606.674482
     7      8     15     1  127.427214    536.960180
     9      8     15     1  121.046375    515.917702
     2      9      8     1   92.046370   1512.689380
     4     10     11     1  113.194719    543.485400
     4     10     30     1  123.431354    255.453565
    11     10     30     1  123.373927    247.767944
    10     11     12     1  113.018986    573.639048
    10     11     31     1  127.500685    246.827120
    12     11     31     1  119.480329    247.988973
     5     12     11     1   91.756726   1135.994021
     6     13     32     1  110.538979    465.928497
     6     13     33     1  112.209045    354.391697
     6     13     34     1  110.555289    466.428810
    32     13     33     1  108.220014    278.678217
    32     13     34     1  106.922194    250.286708
    33     13     34     1  108.208382    277.836151
     3     14     35     1  111.035354    355.644714
     3     14     36     1  111.159984    483.727382
     3     14     37     1  111.154510    484.345983
    35     14     36     1  108.132753    272.602849
    35     14     37     1  108.139523    272.604589
    36     14     37     1  107.056765    237.516874
     8     15     16     1  129.799464    607.552286
     8     15     19     1  119.846209    506.670023
    16     15     19     1  110.354317    578.935770
    15     16     17     1  113.356807    654.535983
    15     16     38     1  123.014758    242.753835
    17     16     38     1  123.628435    264.300191
    16     17     18     1  113.673296    655.819150
    16     17     39     1  125.471394    282.502401
    18     17     39     1  120.855310    261.376230
    17     18     19     1  109.779219    605.024885
    17     18     20     1  130.883555    689.741125
    19     18     20     1  119.337218    559.163237
    15     19     18     1   92.836353    875.746072
    18     20     21     1  123.256819    692.352553
    18     20     25     1  120.626767    655.720269
    21     20     25     1  116.116413    868.491266
    20     21     22     1  120.040572    887.048386
    20     21     26     1  127.957351    668.012411
    22     21     26     1  112.002077    671.373706
    21     22     23     1  120.822800    646.044779
    21     22     28     1  113.780519    538.025814
    23     22     28     1  125.396681    598.280426
    22     23     24     1  117.594347    820.580019
    22     23     40     1  119.911065    306.644024
    24     23     40     1  122.494587    310.830872
    23     24     25     1  122.180464    908.621755
    23     24     41     1  120.126072    282.543145
    25     24     41     1  117.693464    292.646157
    20     25     24     1  123.245403    766.396771
    20     25     42     1  119.017987    260.744610
    24     25     42     1  117.736610    292.471854
    21     26     27     1  107.498353   1183.657201
    26     27     28     1  100.342544    601.981471
    22     28     27     1  106.376507   1082.475103

[ dihedrals ]
; ai     aj     ak     al funct         c0         c1    mult
     3      2      1      6     1 180.0000000  15.1670000    2
     6      1      2      9     1 180.0000000  15.1670000    2
     3      2      1      7     1 180.0000000  15.1670000    2
     7      1      2      9     1 180.0000000  15.1670000    2
     2      1      6      5     1 180.0000000  15.1670000    2
     2      1      6     13     1 180.0000000  15.1670000    2
     5      6      1      7     1 180.0000000  15.1670000    2
     7      1      6     13     1 180.0000000  15.1670000    2
     2      1      7      8     1 180.0000000   2.4476400    2
     2      1      7     29     1 180.0000000   2.9288000    2
     6      1      7      8     1 180.0000000   2.4476400    2
     6      1      7     29     1 180.0000000   2.9288000    2
     1      2      3      4     1 180.0000000  15.1670000    2
     1      2      3     14     1 180.0000000  15.1670000    2
     4      3      2      9     1 180.0000000  15.1670000    2
     9      2      3     14     1 180.0000000  15.1670000    2
     1      2      9      8     1 180.0000000   1.6736000    2
     3      2      9      8     1 180.0000000   1.6736000    2
     2      3      4      5     1 180.0000000  15.1670000    2
     2      3      4     10     1 180.0000000  15.1670000    2
     5      4      3     14     1 180.0000000  15.1670000    2
    10      4      3     14     1 180.0000000  15.1670000    2
     2      3     14     35     1   0.0000000  -0.1005034    1
     2      3     14     36     1   0.0000000   0.2618571    1
     2      3     14     37     1   0.0000000  -0.1613409    1
     4      3     14     35     1   0.0000000   0.1055325    1
     4      3     14     36     1   0.0000000  -0.2798505    1
     4      3     14     37     1   0.0000000   0.1742000    1
     3      4      5      6     1 180.0000000  15.1670000    2
     3      4      5     12     1 180.0000000  15.1670000    2
     6      5      4     10     1 180.0000000  15.1670000    2
    10      4      5     12     1 180.0000000  15.1670000    2
     3      4     10     11     1 180.0000000   2.4476400    2
     3      4     10     30     1 180.0000000   2.9288000    2
     5      4     10     11     1 180.0000000   2.4476400    2
     5      4     10     30     1 180.0000000   2.9288000    2
     1      6      5      4     1 180.0000000  15.1670000    2
     4      5      6     13     1 180.0000000  15.1670000    2
     1      6      5     12     1 180.0000000  15.1670000    2
    12      5      6     13     1 180.0000000  15.1670000    2
     4      5     12     11     1 180.0000000   1.6736000    2
     6      5     12     11     1 180.0000000   1.6736000    2
     1      6     13     32     1   0.0000000   0.1084293    1
     1      6     13     33     1   0.0000000   0.1411914    1
     1      6     13     34     1   0.0000000  -0.2692408    1
     5      6     13     32     1   0.0000000  -0.1138267    1
     5      6     13     33     1   0.0000000  -0.1326814    1
     5      6     13     34     1   0.0000000   0.2666957    1
     1      7      8      9     1 180.0000000  16.7360000    2
     1      7      8     15     1 180.0000000  16.7360000    2
     9      8      7     29     1 180.0000000  16.7360000    2
    15      8      7     29     1 180.0000000  16.7360000    2
     2      9      8      7     1   0.0000000   5.0835600    2
     2      9      8     15     1   0.0000000   5.0835600    2
     7      8     15     16     1 180.0000000   1.4543219    2
     7      8     15     19     1 180.0000000   2.6429561    2
     9      8     15     16     1 180.0000000   3.3476284    2
     9      8     15     19     1 180.0000000   5.2060044    2
     4     10     11     12     1 180.0000000  16.7360000    2
     4     10     11     31     1 180.0000000  16.7360000    2
    12     11     10     30     1 180.0000000  16.7360000    2
    30     10     11     31     1 180.0000000  16.7360000    2
     5     12     11     10     1   0.0000000   5.0835600    2
     5     12     11     31     1 180.0000000   4.6024000    2
     8     15     16     17     1 180.0000000  16.7360000    2
     8     15     16     38     1 180.0000000  16.7360000    2
    17     16     15     19     1 180.0000000  16.7360000    2
    19     15     16     38     1 180.0000000  16.7360000    2
     8     15     19     18     1 180.0000000  10.1671200    1
    16     15     19     18     1 180.0000000  10.1671200    1
    15     16     17     18     1 180.0000000  16.7360000    2
    15     16     17     39     1 180.0000000  16.7360000    2
    18     17     16     38     1 180.0000000  16.7360000    2
    38     16     17     39     1 180.0000000  16.7360000    2
    16     17     18     19     1 180.0000000  16.7360000    2
    16     17     18     20     1 180.0000000  16.7360000    2
    19     18     17     39     1 180.0000000  16.7360000    2
    20     18     17     39     1 180.0000000  16.7360000    2
    15     19     18     17     1 180.0000000  10.1671200    1
    15     19     18     20     1 180.0000000  10.1671200    1
    17     18     20     21     1 180.0000000   6.0535708    2
    17     18     20     25     1 180.0000000   5.1903773    2
    19     18     20     21     1 180.0000000   2.6724369    2
    19     18     20     25     1 180.0000000   2.5856263    2
    18     20     21     22     1 180.0000000  15.1670000    2
    18     20     21     26     1 180.0000000  15.1670000    2
    22     21     20     25     1 180.0000000  15.1670000    2
    25     20     21     26     1 180.0000000  15.1670000    2
    18     20     25     24     1 180.0000000  15.1670000    2
    18     20     25     42     1 180.0000000  15.1670000    2
    21     20     25     24     1 180.0000000  15.1670000    2
    21     20     25     42     1 180.0000000  15.1670000    2
    20     21     22     23     1 180.0000000  15.1670000    2
    20     21     22     28     1 180.0000000  15.1670000    2
    23     22     21     26     1 180.0000000  15.1670000    2
    26     21     22     28     1 180.0000000  15.1670000    2
    20     21     26     27     1 180.0000000  20.0832000    2
    22     21     26     27     1 180.0000000  20.0832000    2
    21     22     23     24     1 180.0000000  15.1670000    2
    21     22     23     40     1 180.0000000  15.1670000    2
    24     23     22     28     1 180.0000000  15.1670000    2
    28     22     23     40     1 180.0000000  15.1670000    2
    21     22     28     27     1 180.0000000  20.0832000    2
    23     22     28     27     1 180.0000000  20.0832000    2
    22     23     24     25     1 180.0000000  15.1670000    2
    22     23     24     41     1 180.0000000  15.1670000    2
    25     24     23     40     1 180.0000000  15.1670000    2
    40     23     24     41     1 180.0000000  15.1670000    2
    20     25     24     23     1 180.0000000  15.1670000    2
    23     24     25     42     1 180.0000000  15.1670000    2
    20     25     24     41     1 180.0000000  15.1670000    2
    41     24     25     42     1 180.0000000  15.1670000    2
    21     26     27     28     1 180.0000000  20.0832000    2
    22     28     27     26     1 180.0000000  20.0832000    2
     2      6      1      7     4 180.0000000   4.6024000    2
     1      3      2      9     4 180.0000000   4.6024000    2
     2      4      3     14     4 180.0000000   4.6024000    2
     3      5      4     10     4 180.0000000   4.6024000    2
     4      6      5     12     4 180.0000000   4.6024000    2
     1      5      6     13     4 180.0000000   4.6024000    2
     1      8      7     29     4 180.0000000   4.6024000    2
     7      9      8     15     4 180.0000000   4.6024000    2
     4     11     10     30     4 180.0000000   4.6024000    2
    10     12     11     31     4 180.0000000   4.6024000    2
     8     16     15     19     4 180.0000000   4.6024000    2
    15     17     16     38     4 180.0000000   4.6024000    2
    16     18     17     39     4 180.0000000   4.6024000    2
    17     19     18     20     4 180.0000000   4.6024000    2
    18     21     20     25     4 180.0000000   4.6024000    2
    20     22     21     26     4 180.0000000   4.6024000    2
    21     23     22     28     4 180.0000000   4.6024000    2
    22     24     23     40     4 180.0000000   4.6024000    2
    23     25     24     41     4 180.0000000   4.6024000    2
    20     24     25     42     4 180.0000000   4.6024000    2

[ system ]
; Name
PPI

[ molecules ]
; Compound       #mols
MOL                 1

