;
;   File PPI_1.top  was generated
;   By user: hungn (1000)
;   On host:hungn-workshop 
;   At date:Tue. March  2 14:23:12 2026 
;
;   This is a standalone topology file
;
;   Created by:
;   ParmEd:       , VERSION4.3.0 
;   Executable:   
;   Library dir:  /home/hungn/BioMed/GROMACS/2024.2.single/share/gromacs/top
;   Command line:
;     
;

[ defaults ]
; nbfunc        comb-rule       gen-pairs       fudgeLJ fudgeQQ
1               2               yes             0.5          0.83333333  

[ atomtypes ]
; name    at.num    mass    charge ptype  sigma      epsilon
ca             6  12.010000  0.00000000  A     0.33152123      0.4133792
cc             6  12.010000  0.00000000  A     0.33152123      0.4133792
cd             6  12.010000  0.00000000  A     0.33152123      0.4133792
ss            16  32.060000  0.00000000  A     0.35324134      1.1815616
c3             6  12.010000  0.00000000  A     0.33977095      0.4510352
nc             7  14.010000  0.00000000  A     0.33841679      0.3937144
ha             1   1.008000  0.00000000  A     0.26254785      0.0673624
h4             1   1.008000  0.00000000  A     0.25363887      0.0673624
hc             1   1.008000  0.00000000  A      0.2600177      0.0870272
OW             8  16.000000  0.00000000  A     0.31742704      0.6836907
HW             1   1.008000  0.00000000  A              0              0


[ moleculetype ]
; Name            nrexcl
UNK          3

[ atoms ]
;   nr       type  resnr residue  atom   cgnr    charge       mass  typeB    chargeB      massB
; residue    1 UNK rtp UNK q 0.0
    1         ca      1    UNK      C      1 -0.06580000  12.010000   ; qtot -0.065800
    2         ca      1    UNK     C1      2 -0.19300000  12.010000   ; qtot -0.258800
    3         ca      1    UNK     C2      3 -0.01030000  12.010000   ; qtot -0.269100
    4         ca      1    UNK     C3      4 -0.06880000  12.010000   ; qtot -0.337900
    5         ca      1    UNK     C4      5 -0.18900000  12.010000   ; qtot -0.526900
    6         ca      1    UNK     C5      6 -0.00930000  12.010000   ; qtot -0.536200
    7         cc      1    UNK     C6      7 -0.18220000  12.010000   ; qtot -0.718400
    8         cd      1    UNK     C7      8 0.00840000  12.010000   ; qtot -0.710000
    9         ss      1    UNK      S      9 0.14440000  32.060000   ; qtot -0.565600
   10         cc      1    UNK     C8     10 -0.18120000  12.010000   ; qtot -0.746800
   11         cd      1    UNK     C9     11 -0.18740000  12.010000   ; qtot -0.934200
   12         ss      1    UNK     S1     12 0.12140000  32.060000   ; qtot -0.812800
   13         c3      1    UNK    C10     13 -0.05580000  12.010000   ; qtot -0.868600
   14         c3      1    UNK    C11     14 -0.05580000  12.010000   ; qtot -0.924400
   15         cd      1    UNK    C12     15 -0.19380000  12.010000   ; qtot -1.118200
   16         cc      1    UNK    C13     16 -0.13500000  12.010000   ; qtot -1.253200
   17         cc      1    UNK    C14     17 -0.09100000  12.010000   ; qtot -1.344200
   18         cd      1    UNK    C15     18 -0.21900000  12.010000   ; qtot -1.563200
   19         ss      1    UNK     S2     19 0.32800000  32.060000   ; qtot -1.235200
   20         ca      1    UNK    C16     20 0.05000000  12.010000   ; qtot -1.185200
   21         ca      1    UNK    C17     21 -0.06400000  12.010000   ; qtot -1.249200
   22         ca      1    UNK    C18     22 -0.07500000  12.010000   ; qtot -1.324200
   23         ca      1    UNK    C19     23 -0.06700000  12.010000   ; qtot -1.391200
   24         ca      1    UNK    C20     24 -0.09600000  12.010000   ; qtot -1.487200
   25         ca      1    UNK    C21     25 -0.10700000  12.010000   ; qtot -1.594200
   26         nc      1    UNK      N     26 -0.27050000  14.010000   ; qtot -1.864700
   27         ss      1    UNK     S3     27 0.52600000  32.060000   ; qtot -1.338700
   28         nc      1    UNK     N1     28 -0.27650000  14.010000   ; qtot -1.615200
   29         ha      1    UNK      H     29 0.20600000   1.008000   ; qtot -1.409200
   30         ha      1    UNK     H1     30 0.20500000   1.008000   ; qtot -1.204200
   31         h4      1    UNK     H2     31 0.22000000   1.008000   ; qtot -0.984200
   32         hc      1    UNK     H3     32 0.05036700   1.008000   ; qtot -0.933833
   33         hc      1    UNK     H4     33 0.05036700   1.008000   ; qtot -0.883466
   34         hc      1    UNK     H5     34 0.05036700   1.008000   ; qtot -0.833099
   35         hc      1    UNK     H6     35 0.05070000   1.008000   ; qtot -0.782399
   36         hc      1    UNK     H7     36 0.05070000   1.008000   ; qtot -0.731699
   37         hc      1    UNK     H8     37 0.05070000   1.008000   ; qtot -0.680999
   38         ha      1    UNK     H9     38 0.14300000   1.008000   ; qtot -0.537999
   39         ha      1    UNK    H10     39 0.15100000   1.008000   ; qtot -0.386999
   40         ha      1    UNK    H11     40 0.13900000   1.008000   ; qtot -0.247999
   41         ha      1    UNK    H12     41 0.12400000   1.008000   ; qtot -0.123999
   42         ha      1    UNK    H13     42 0.12600000   1.008000   ; qtot 0.002001

[ bonds ]
;    ai     aj funct         c0         c1         c2         c3
      1      2     1   0.13990 296436.400000
      1      6     1   0.13990 296436.400000
      1      7     1   0.14530 248111.200000
      2      3     1   0.13990 296436.400000
      2      9     1   0.17850 178640.064000
      3      4     1   0.13990 296436.400000
      3     14     1   0.15150 204103.888000
      4      5     1   0.13990 296436.400000
      4     10     1   0.14530 248111.200000
      5      6     1   0.13990 296436.400000
      5     12     1   0.17850 178640.064000
      6     13     1   0.15150 204103.888000
      7      8     1   0.13730 323205.632000
      8      9     1   0.17620 189560.304000
      8     15     1   0.14280 269022.832000
     10     11     1   0.13730 323205.632000
     11     12     1   0.17620 189560.304000
     15     16     1   0.13730 323205.632000
     15     19     1   0.17620 189560.304000
     16     17     1   0.14270 269466.336000
     17     18     1   0.13730 323205.632000
     18     19     1   0.17620 189560.304000
     18     20     1   0.14610 241659.472000
     20     21     1   0.13990 296436.400000
     20     25     1   0.13990 296436.400000
     21     22     1   0.13990 296436.400000
     21     26     1   0.13850 276135.632000
     22     23     1   0.13990 296436.400000
     22     28     1   0.13850 276135.632000
     23     24     1   0.13990 296436.400000
     24     25     1   0.13990 296436.400000
     26     27     1   0.16700 267273.920000
     27     28     1   0.16700 267273.920000
      7     29     1   0.10840 304695.616000
     10     30     1   0.10840 304695.616000
     11     31     1   0.10820 307348.272000
     13     32     1   0.10960 288905.200000
     13     33     1   0.10960 288905.200000
     13     34     1   0.10960 288905.200000
     14     35     1   0.10960 288905.200000
     14     36     1   0.10960 288905.200000
     14     37     1   0.10960 288905.200000
     16     38     1   0.10840 304695.616000
     17     39     1   0.10840 304695.616000
     23     40     1   0.10860 301825.392000
     24     41     1   0.10860 301825.392000
     25     42     1   0.10860 301825.392000

[ pairs ]
;    ai     aj funct         c0         c1         c2         c3
      1      4     1
      1     14     1
      1     12     1
      1     15     1
      2      5     1
      2     13     1
      2     10     1
      2     15     1
      6      3     1
      7      3     1
      3      8     1
      3     12     1
      3     11     1
      4      9     1
      4     13     1
      5     14     1
      7      5     1
      6      9     1
      6      8     1
      6     10     1
      6     11     1
      7     13     1
      7     16     1
      7     19     1
      8     17     1
      8     18     1
      9     14     1
      9     16     1
      9     19     1
     10     14     1
     12     13     1
     15     20     1
     16     20     1
     17     21     1
     17     25     1
     18     22     1
     18     26     1
     18     24     1
     19     21     1
     19     25     1
     20     23     1
     20     28     1
     20     27     1
     21     24     1
     22     25     1
     23     26     1
     23     27     1
     24     28     1
     25     26     1
      1     32     1
      1     33     1
      1     34     1
      2     29     1
      2     35     1
      2     36     1
      2     37     1
      3     30     1
      4     35     1
      4     36     1
      4     37     1
      4     31     1
      5     30     1
      5     32     1
      5     33     1
      5     34     1
      5     31     1
      6     29     1
      8     38     1
      9     29     1
     12     30     1
     15     29     1
     15     39     1
     18     38     1
     18     42     1
     19     38     1
     19     39     1
     20     39     1
     20     41     1
     21     42     1
     21     40     1
     22     41     1
     23     42     1
     25     40     1
     28     40     1
     30     31     1
     38     39     1
     40     41     1
     41     42     1

[ angles ]
;    ai     aj     ak funct         c0         c1         c2         c3
      1      2      3     1   120.0200517 532.790560
      1      2      9     1   120.0600516 527.937120
      1      6      5     1   120.0200517 532.790560
      1      6     13     1   120.8300518 508.272320
      1      7      8     1   116.0300498 535.552000
      2      1      6     1   120.0200517 532.790560
      2      1      7     1   120.9100516 520.405920
      2      3      4     1   120.0200517 532.790560
      2      3     14     1   120.8300518 508.272320
      2      9      8     1   90.4300388 844.833280
      3      2      9     1   120.0600516 527.937120
      3      4      5     1   120.0200517 532.790560
      3      4     10     1   120.9100516 520.405920
      4      3     14     1   120.8300518 508.272320
      4      5      6     1   120.0200517 532.790560
      4      5     12     1   120.0600516 527.937120
      4     10     11     1   116.0300498 535.552000
      5      4     10     1   120.9100516 520.405920
      5      6     13     1   120.8300518 508.272320
      5     12     11     1   90.4300388 844.833280
      6      1      7     1   120.9100516 520.405920
      6      5     12     1   120.0600516 527.937120
      7      8      9     1   113.3500489 550.949120
      7      8     15     1   116.2100496 540.321760
      8     15     16     1   116.2100496 540.321760
      8     15     19     1   120.2700515 530.363840
      9      8     15     1   120.2700515 530.363840
     10     11     12     1   113.3500489 550.949120
     15     16     17     1   119.1900513 533.627360
     15     19     18     1   89.9300386 852.615520
     16     15     19     1   113.3500489 550.949120
     16     17     18     1   119.1900513 533.627360
     17     18     19     1   113.3500489 550.949120
     17     18     20     1   124.2900534 515.803520
     18     20     21     1   120.8300518 518.983360
     18     20     25     1   120.8300518 518.983360
     19     18     20     1   119.8200516 528.271840
     20     21     22     1   120.0200517 532.790560
     20     21     26     1   121.8700522 564.003200
     20     25     24     1   120.0200517 532.790560
     21     20     25     1   120.0200517 532.790560
     21     22     23     1   120.0200517 532.790560
     21     22     28     1   121.8700522 564.003200
     21     26     27     1   106.5300457 730.442720
     22     21     26     1   121.8700522 564.003200
     22     23     24     1   120.0200517 532.790560
     22     28     27     1   106.5300457 730.442720
     23     22     28     1   121.8700522 564.003200
     23     24     25     1   120.0200517 532.790560
     26     27     28     1   98.1600422 970.353280
      1      7     29     1   122.9000527 359.656640
      3     14     35     1   110.6300475 364.928480
      3     14     36     1   110.6300475 364.928480
      3     14     37     1   110.6300475 364.928480
      4     10     30     1   122.9000527 359.656640
      6     13     32     1   110.6300475 364.928480
      6     13     33     1   110.6300475 364.928480
      6     13     34     1   110.6300475 364.928480
      8      7     29     1   121.4000520 379.070400
     10     11     31     1   127.6400546 369.865600
     11     10     30     1   121.4000520 379.070400
     12     11     31     1   120.2000515 350.535520
     15     16     38     1   121.4000520 379.070400
     16     17     39     1   119.7100511 369.865600
     17     16     38     1   119.7100511 369.865600
     18     17     39     1   121.4000520 379.070400
     20     25     42     1   119.8800511 375.723200
     22     23     40     1   119.8800511 375.723200
     23     24     41     1   119.8800511 375.723200
     24     23     40     1   119.8800511 375.723200
     24     25     42     1   119.8800511 375.723200
     25     24     41     1   119.8800511 375.723200
     32     13     33     1   107.7300462 299.574400
     32     13     34     1   107.7300462 299.574400
     33     13     34     1   107.7300462 299.574400
     35     14     36     1   107.7300462 299.574400
     35     14     37     1   107.7300462 299.574400
     36     14     37     1   107.7300462 299.574400

[ dihedrals ]
;    ai     aj     ak     al funct         c0         c1         c2         c3         c4         c5
      1      2      3      4     1  180.0000771  15.1670000  2
      1      2      3     14     1  180.0000771  15.1670000  2
      1      2      9      8     1  180.0000771  1.6736000  2
      1      6      5      4     1  180.0000771  15.1670000  2
      1      6      5     12     1  180.0000771  15.1670000  2
      1      7      8      9     1  180.0000771  16.7360000  2
      1      7      8     15     1  180.0000771  16.7360000  2
      2      1      6      5     1  180.0000771  15.1670000  2
      2      1      6     13     1  180.0000771  15.1670000  2
      2      1      7      8     1  180.0000771  2.4476400  2
      2      3      4      5     1  180.0000771  15.1670000  2
      2      3      4     10     1  180.0000771  15.1670000  2
      2      9      8      7     1  0.0000000  5.0835600  2
      2      9      8     15     1  0.0000000  5.0835600  2
      6      1      2      3     1  180.0000771  15.1670000  2
      7      1      2      3     1  180.0000771  15.1670000  2
      3      2      9      8     1  180.0000771  1.6736000  2
      3      4      5      6     1  180.0000771  15.1670000  2
      3      4      5     12     1  180.0000771  15.1670000  2
      3      4     10     11     1  180.0000771  2.4476400  2
      4      3      2      9     1  180.0000771  15.1670000  2
      4      5      6     13     1  180.0000771  15.1670000  2
      4      5     12     11     1  180.0000771  1.6736000  2
      4     10     11     12     1  180.0000771  16.7360000  2
      5      4      3     14     1  180.0000771  15.1670000  2
      5      4     10     11     1  180.0000771  2.4476400  2
      7      1      6      5     1  180.0000771  15.1670000  2
      5     12     11     10     1  0.0000000  5.0835600  2
      6      1      2      9     1  180.0000771  15.1670000  2
      6      1      7      8     1  180.0000771  2.4476400  2
      6      5      4     10     1  180.0000771  15.1670000  2
      6      5     12     11     1  180.0000771  1.6736000  2
      7      1      2      9     1  180.0000771  15.1670000  2
      7      1      6     13     1  180.0000771  15.1670000  2
      7      8     15     16     1  180.0000771  16.7360000  2
      7      8     15     19     1  180.0000771  16.7360000  2
      8     15     16     17     1  180.0000771  16.7360000  2
      8     15     19     18     1  180.0000771  10.1671200  1
      9      2      3     14     1  180.0000771  15.1670000  2
      9      8     15     16     1  180.0000771  16.7360000  2
      9      8     15     19     1  180.0000771  16.7360000  2
     10      4      3     14     1  180.0000771  15.1670000  2
     10      4      5     12     1  180.0000771  15.1670000  2
     12      5      6     13     1  180.0000771  15.1670000  2
     15     16     17     18     1  180.0000771  16.7360000  2
     15     19     18     17     1  180.0000771  10.1671200  1
     15     19     18     20     1  180.0000771  10.1671200  1
     16     15     19     18     1  180.0000771  10.1671200  1
     16     17     18     19     1  180.0000771  16.7360000  2
     16     17     18     20     1  180.0000771  16.7360000  2
     17     16     15     19     1  180.0000771  16.7360000  2
     17     18     20     21     1  180.0000771  15.7736800  2
     17     18     20     25     1  180.0000771  15.7736800  2
     18     20     21     22     1  180.0000771  15.1670000  2
     18     20     21     26     1  180.0000771  15.1670000  2
     18     20     25     24     1  180.0000771  15.1670000  2
     19     18     20     21     1  180.0000771  2.9288000  2
     19     18     20     25     1  180.0000771  2.9288000  2
     20     21     22     23     1  180.0000771  15.1670000  2
     20     21     22     28     1  180.0000771  15.1670000  2
     20     21     26     27     1  180.0000771  20.0832000  2
     20     25     24     23     1  180.0000771  15.1670000  2
     21     20     25     24     1  180.0000771  15.1670000  2
     21     22     23     24     1  180.0000771  15.1670000  2
     21     22     28     27     1  180.0000771  20.0832000  2
     21     26     27     28     1  180.0000771  20.0832000  2
     22     21     20     25     1  180.0000771  15.1670000  2
     22     21     26     27     1  180.0000771  20.0832000  2
     22     23     24     25     1  180.0000771  15.1670000  2
     22     28     27     26     1  180.0000771  20.0832000  2
     23     22     21     26     1  180.0000771  15.1670000  2
     23     22     28     27     1  180.0000771  20.0832000  2
     24     23     22     28     1  180.0000771  15.1670000  2
     25     20     21     26     1  180.0000771  15.1670000  2
     26     21     22     28     1  180.0000771  15.1670000  2
      7      1      6      2     4  180.0000771  4.6024000  2
      1      3      2      9     4  180.0000771  4.6024000  2
     14      2      3      4     4  180.0000771  4.6024000  2
      3      5      4     10     4  180.0000771  4.6024000  2
      4      6      5     12     4  180.0000771  4.6024000  2
     13      1      6      5     4  180.0000771  4.6024000  2
      7     15      8      9     4  180.0000771  4.6024000  2
     16      8     15     19     4  180.0000771  4.6024000  2
     20     17     18     19     4  180.0000771  4.6024000  2
     21     25     20     18     4  180.0000771  4.6024000  2
     20     22     21     26     4  180.0000771  4.6024000  2
     21     23     22     28     4  180.0000771  4.6024000  2
      1      6     13     32     1  0.0000000  0.0000000  1
      1      6     13     33     1  0.0000000  0.0000000  1
      1      6     13     34     1  0.0000000  0.0000000  1
      2      1      7     29     1  180.0000771  2.9288000  2
      2      3     14     35     1  0.0000000  0.0000000  1
      2      3     14     36     1  0.0000000  0.0000000  1
      2      3     14     37     1  0.0000000  0.0000000  1
      3      4     10     30     1  180.0000771  2.9288000  2
      4      3     14     35     1  0.0000000  0.0000000  1
      4      3     14     36     1  0.0000000  0.0000000  1
      4      3     14     37     1  0.0000000  0.0000000  1
      4     10     11     31     1  180.0000771  16.7360000  2
      5      4     10     30     1  180.0000771  2.9288000  2
      5      6     13     32     1  0.0000000  0.0000000  1
      5      6     13     33     1  0.0000000  0.0000000  1
      5      6     13     34     1  0.0000000  0.0000000  1
      5     12     11     31     1  180.0000771  4.6024000  2
      6      1      7     29     1  180.0000771  2.9288000  2
      8     15     16     38     1  180.0000771  16.7360000  2
      9      8      7     29     1  180.0000771  16.7360000  2
     12     11     10     30     1  180.0000771  16.7360000  2
     15      8      7     29     1  180.0000771  16.7360000  2
     15     16     17     39     1  180.0000771  16.7360000  2
     18     17     16     38     1  180.0000771  16.7360000  2
     18     20     25     42     1  180.0000771  15.1670000  2
     19     15     16     38     1  180.0000771  16.7360000  2
     19     18     17     39     1  180.0000771  16.7360000  2
     20     18     17     39     1  180.0000771  16.7360000  2
     20     25     24     41     1  180.0000771  15.1670000  2
     21     20     25     42     1  180.0000771  15.1670000  2
     21     22     23     40     1  180.0000771  15.1670000  2
     22     23     24     41     1  180.0000771  15.1670000  2
     23     24     25     42     1  180.0000771  15.1670000  2
     25     24     23     40     1  180.0000771  15.1670000  2
     28     22     23     40     1  180.0000771  15.1670000  2
     30     10     11     31     1  180.0000771  16.7360000  2
     38     16     17     39     1  180.0000771  16.7360000  2
     40     23     24     41     1  180.0000771  15.1670000  2
     41     24     25     42     1  180.0000771  15.1670000  2
      1      8      7     29     4  180.0000771  4.6024000  2
      4     11     10     30     4  180.0000771  4.6024000  2
     10     31     11     12     4  180.0000771  4.6024000  2
     17     15     16     38     4  180.0000771  4.6024000  2
     16     18     17     39     4  180.0000771  4.6024000  2
     22     24     23     40     4  180.0000771  4.6024000  2
     23     25     24     41     4  180.0000771  4.6024000  2
     20     24     25     42     4  180.0000771  4.6024000  2


[ moleculetype ]
; Name            nrexcl
WAT          3

[ atoms ]
;   nr       type  resnr residue  atom   cgnr    charge       mass  typeB    chargeB      massB
; residue    1 WAT rtp WAT q 0.0
    1         OW      1    WAT      O      1 -0.89517000  16.000000   ; qtot -0.895170
    2         HW      1    WAT     H1      2 0.44758500   1.008000   ; qtot -0.447585
    3         HW      1    WAT     H2      3 0.44758500   1.008000   ; qtot 0.000000

#ifdef FLEXIBLE

[ bonds ]
;    ai     aj funct         c0         c1         c2         c3
      2      1     1   0.09789 462750.400000
      3      1     1   0.09789 462750.400000
      3      2     1   0.15985 462750.400000


#else

[ settles ]
; i     funct   doh     dhh
1     1   0.09788820   0.15985070

#endif

[ exclusions ]
1  2  3
2  1  3
3  1  2

[ system ]
; Name
Generic title

[ molecules ]
; Compound       #mols
UNK                  1
WAT                895
