GROningen MAchine for Chemical Simulation
 2727
    1UNK      C    1   1.843   1.861   1.466
    1UNK     C1    2   1.787   1.739   1.461
    1UNK     C2    3   1.653   1.724   1.471
    1UNK     C3    4   1.583   1.837   1.485
    1UNK     C4    5   1.639   1.959   1.490
    1UNK     C5    6   1.773   1.974   1.481
    1UNK     C6    7   1.976   1.847   1.455
    1UNK     C7    8   2.009   1.717   1.443
    1UNK      S    9   1.887   1.634   1.445
    1UNK     C8   10   1.450   1.850   1.496
    1UNK     C9   11   1.420   1.980   1.508
    1UNK     S1   12   1.539   2.066   1.506
    1UNK    C10   13   1.843   2.108   1.486
    1UNK    C11   14   1.583   1.590   1.466
    1UNK    C12   15   2.133   1.667   1.429
    1UNK    C13   16   2.168   1.538   1.417
    1UNK    C14   17   2.300   1.527   1.406
    1UNK    C15   18   2.361   1.646   1.410
    1UNK     S2   19   2.255   1.748   1.426
    1UNK    C16   20   2.494   1.676   1.403
    1UNK    C17   21   2.592   1.584   1.388
    1UNK    C18   22   2.723   1.619   1.381
    1UNK    C19   23   2.762   1.747   1.388
    1UNK    C20   24   2.667   1.840   1.403
    1UNK    C21   25   2.537   1.804   1.410
    1UNK      N   26   2.578   1.458   1.379
    1UNK     S3   27   2.726   1.375   1.362
    1UNK     N1   28   2.806   1.524   1.367
    1UNK      H   29   2.046   1.931   1.456
    1UNK     H1   30   1.376   1.769   1.496
    1UNK     H2   31   1.318   2.019   1.519
    1UNK     H3   32   1.901   2.125   1.392
    1UNK     H4   33   1.776   2.196   1.497
    1UNK     H5   34   1.914   2.111   1.572
    1UNK     H6   35   1.650   1.502   1.453
    1UNK     H7   36   1.526   1.573   1.560
    1UNK     H8   37   1.511   1.587   1.380
    1UNK     H9   38   2.100   1.452   1.415
    1UNK    H10   39   2.345   1.427   1.395
    1UNK    H11   40   2.868   1.775   1.383
    1UNK    H12   41   2.696   1.946   1.409
    1UNK    H13   42   2.469   1.890   1.422
    2WAT      O   43   3.692   2.487   2.176
    2WAT     H1   44   3.780   2.445   2.171
    2WAT     H2   45   3.701   2.583   2.160
    3WAT      O   46   3.493   2.244   1.766
    3WAT     H1   47   3.435   2.316   1.735
    3WAT     H2   48   3.453   2.157   1.743
    4WAT      O   49   3.108   3.018   1.495
    4WAT     H1   50   3.109   2.939   1.552
    4WAT     H2   51   3.081   3.096   1.547
    5WAT      O   52   3.797   3.297   1.971
    5WAT     H1   53   3.753   3.303   1.884
    5WAT     H2   54   3.753   3.229   2.026
    6WAT      O   55   3.964   3.119   2.277
    6WAT     H1   56   4.008   3.071   2.351
    6WAT     H2   57   3.875   3.148   2.305
    7WAT      O   58   3.664   2.122   1.553
    7WAT     H1   59   3.574   2.150   1.580
    7WAT     H2   60   3.703   2.067   1.625
    8WAT      O   61   3.084   2.084   2.583
    8WAT     H1   62   2.987   2.080   2.586
    8WAT     H2   63   3.118   2.010   2.528
    9WAT      O   64   3.768   2.053   2.549
    9WAT     H1   65   3.805   2.109   2.478
    9WAT     H2   66   3.752   2.108   2.629
   10WAT      O   67   3.087   3.097   2.465
   10WAT     H1   68   3.076   3.185   2.424
   10WAT     H2   69   2.999   3.063   2.492
   11WAT      O   70   3.637   2.726   1.870
   11WAT     H1   71   3.685   2.806   1.898
   11WAT     H2   72   3.700   2.652   1.858
   12WAT      O   73   3.197   2.595   1.870
   12WAT     H1   74   3.267   2.614   1.935
   12WAT     H2   75   3.113   2.576   1.916
   13WAT      O   76   3.853   1.816   2.448
   13WAT     H1   77   3.835   1.908   2.477
   13WAT     H2   78   3.942   1.811   2.407
   14WAT      O   79   3.021   3.195   1.681
   14WAT     H1   80   2.989   3.283   1.654
   14WAT     H2   81   3.094   3.205   1.745
   15WAT      O   82   3.305   2.761   2.651
   15WAT     H1   83   3.319   2.857   2.666
   15WAT     H2   84   3.391   2.714   2.659
   16WAT      O   85   3.915   2.023   1.762
   16WAT     H1   86   3.868   2.096   1.806
   16WAT     H2   87   3.999   2.057   1.723
   17WAT      O   88   3.321   2.418   1.671
   17WAT     H1   89   3.270   2.402   1.589
   17WAT     H2   90   3.269   2.475   1.731
   18WAT      O   91   3.695   2.970   1.628
   18WAT     H1   92   3.734   2.894   1.581
   18WAT     H2   93   3.600   2.952   1.646
   19WAT      O   94   3.759   3.231   1.543
   19WAT     H1   95   3.759   3.142   1.583
   19WAT     H2   96   3.718   3.295   1.605
   20WAT      O   97   3.517   2.637   1.595
   20WAT     H1   98   3.547   2.690   1.671
   20WAT     H2   99   3.444   2.577   1.623
   21WAT      O  100   3.444   3.126   2.400
   21WAT     H1  101   3.373   3.145   2.465
   21WAT     H2  102   3.425   3.172   2.316
   22WAT      O  103   3.330   2.226   2.248
   22WAT     H1  104   3.247   2.270   2.276
   22WAT     H2  105   3.369   2.275   2.173
   23WAT      O  106   3.660   2.018   2.090
   23WAT     H1  107   3.690   2.085   2.025
   23WAT     H2  108   3.738   1.986   2.141
   24WAT      O  109   3.443   3.237   1.772
   24WAT     H1  110   3.359   3.278   1.801
   24WAT     H2  111   3.425   3.146   1.740
   25WAT      O  112   3.429   2.801   2.267
   25WAT     H1  113   3.463   2.893   2.273
   25WAT     H2  114   3.476   2.745   2.332
   26WAT      O  115   3.115   2.327   2.032
   26WAT     H1  116   3.209   2.353   2.024
   26WAT     H2  117   3.095   2.306   2.126
   27WAT      O  118   3.877   2.207   2.357
   27WAT     H1  119   3.900   2.289   2.310
   27WAT     H2  120   3.857   2.136   2.291
   28WAT      O  121   3.791   2.758   2.274
   28WAT     H1  122   3.757   2.849   2.269
   28WAT     H2  123   3.750   2.712   2.350
   29WAT      O  124   3.630   3.128   2.129
   29WAT     H1  125   3.558   3.189   2.156
   29WAT     H2  126   3.678   3.098   2.209
   30WAT      O  127   3.435   1.978   2.246
   30WAT     H1  128   3.508   1.990   2.181
   30WAT     H2  129   3.383   2.060   2.252
   31WAT      O  130   3.792   2.716   1.540
   31WAT     H1  131   3.707   2.687   1.502
   31WAT     H2  132   3.833   2.642   1.590
   32WAT      O  133   3.084   2.384   1.547
   32WAT     H1  134   3.053   2.367   1.638
   32WAT     H2  135   3.018   2.350   1.483
   33WAT      O  136   3.409   2.988   1.647
   33WAT     H1  137   3.378   3.015   1.559
   33WAT     H2  138   3.338   2.938   1.693
   34WAT      O  139   3.290   1.832   1.904
   34WAT     H1  140   3.249   1.921   1.904
   34WAT     H2  141   3.385   1.840   1.882
   35WAT      O  142   3.563   1.835   1.919
   35WAT     H1  143   3.627   1.825   1.846
   35WAT     H2  144   3.588   1.912   1.974
   36WAT      O  145   3.343   2.042   1.677
   36WAT     H1  146   3.246   2.047   1.682
   36WAT     H2  147   3.369   2.008   1.588
   37WAT      O  148   3.475   2.336   2.637
   37WAT     H1  149   3.471   2.346   2.540
   37WAT     H2  150   3.564   2.305   2.663
   38WAT      O  151   3.415   2.634   2.035
   38WAT     H1  152   3.410   2.700   2.107
   38WAT     H2  153   3.493   2.652   1.979
   39WAT      O  154   3.154   2.875   2.295
   39WAT     H1  155   3.135   2.948   2.358
   39WAT     H2  156   3.248   2.848   2.303
   40WAT      O  157   3.049   2.629   2.312
   40WAT     H1  158   3.084   2.718   2.289
   40WAT     H2  159   3.066   2.611   2.406
   41WAT      O  160   3.138   2.842   1.681
   41WAT     H1  161   3.162   2.747   1.688
   41WAT     H2  162   3.072   2.864   1.750
   42WAT      O  163   3.796   2.504   1.838
   42WAT     H1  164   3.851   2.558   1.899
   42WAT     H2  165   3.850   2.431   1.801
   43WAT      O  166   3.073   2.331   2.299
   43WAT     H1  167   3.025   2.308   2.381
   43WAT     H2  168   3.090   2.428   2.297
   44WAT      O  169   3.193   2.318   2.639
   44WAT     H1  170   3.288   2.295   2.629
   44WAT     H2  171   3.138   2.240   2.618
   45WAT      O  172   3.949   2.945   2.075
   45WAT     H1  173   3.876   2.975   2.017
   45WAT     H2  174   3.954   3.003   2.154
   46WAT      O  175   3.572   2.667   2.452
   46WAT     H1  176   3.551   2.574   2.431
   46WAT     H2  177   3.575   2.679   2.549
   47WAT      O  178   3.428   2.351   2.035
   47WAT     H1  179   3.456   2.319   1.947
   47WAT     H2  180   3.457   2.444   2.047
   48WAT      O  181   3.882   2.920   2.576
   48WAT     H1  182   3.973   2.955   2.585
   48WAT     H2  183   3.886   2.822   2.571
   49WAT      O  184   3.589   2.468   1.419
   49WAT     H1  185   3.512   2.410   1.404
   49WAT     H2  186   3.573   2.524   1.498
   50WAT      O  187   3.112   2.575   2.578
   50WAT     H1  188   3.124   2.478   2.591
   50WAT     H2  189   3.187   2.622   2.619
   51WAT      O  190   3.712   3.083   2.370
   51WAT     H1  191   3.766   3.049   2.443
   51WAT     H2  192   3.621   3.102   2.403
   52WAT      O  193   3.724   2.967   1.924
   52WAT     H1  194   3.663   3.023   1.976
   52WAT     H2  195   3.705   2.977   1.829
   53WAT      O  196   3.826   2.367   1.474
   53WAT     H1  197   3.820   2.270   1.488
   53WAT     H2  198   3.737   2.402   1.454
   54WAT      O  199   3.545   1.878   2.470
   54WAT     H1  200   3.635   1.907   2.496
   54WAT     H2  201   3.521   1.921   2.385
   55WAT      O  202   3.494   2.412   2.370
   55WAT     H1  203   3.443   2.333   2.344
   55WAT     H2  204   3.554   2.437   2.296
   56WAT      O  205   3.915   1.993   2.195
   56WAT     H1  206   3.968   2.043   2.130
   56WAT     H2  207   3.962   1.911   2.220
   57WAT      O  208   3.737   2.220   1.909
   57WAT     H1  209   3.768   2.308   1.936
   57WAT     H2  210   3.661   2.229   1.848
   58WAT      O  211   3.169   1.924   2.362
   58WAT     H1  212   3.108   1.904   2.288
   58WAT     H2  213   3.262   1.914   2.332
   59WAT      O  214   3.740   1.833   1.679
   59WAT     H1  215   3.817   1.890   1.701
   59WAT     H2  216   3.756   1.790   1.592
   60WAT      O  217   3.801   2.425   0.807
   60WAT     H1  218   3.849   2.493   0.755
   60WAT     H2  219   3.756   2.468   0.883
   61WAT      O  220   3.692   2.487   0.322
   61WAT     H1  221   3.780   2.445   0.317
   61WAT     H2  222   3.701   2.583   0.305
   62WAT      O  223   3.370   2.299   1.328
   62WAT     H1  224   3.388   2.268   1.237
   62WAT     H2  225   3.289   2.257   1.361
   63WAT      O  226   3.964   3.119   0.423
   63WAT     H1  227   4.008   3.071   0.496
   63WAT     H2  228   3.875   3.148   0.451
   64WAT      O  229   3.428   1.757   0.861
   64WAT     H1  230   3.344   1.804   0.877
   64WAT     H2  231   3.472   1.795   0.782
   65WAT      O  232   3.701   1.949   1.309
   65WAT     H1  233   3.693   1.860   1.347
   65WAT     H2  234   3.716   2.014   1.380
   66WAT      O  235   3.084   2.084   0.728
   66WAT     H1  236   2.987   2.080   0.732
   66WAT     H2  237   3.118   2.010   0.674
   67WAT      O  238   3.768   2.053   0.695
   67WAT     H1  239   3.805   2.109   0.624
   67WAT     H2  240   3.752   2.108   0.774
   68WAT      O  241   3.868   3.266   0.876
   68WAT     H1  242   3.878   3.330   0.950
   68WAT     H2  243   3.920   3.296   0.799
   69WAT      O  244   3.087   3.097   0.611
   69WAT     H1  245   3.076   3.185   0.569
   69WAT     H2  246   2.999   3.063   0.638
   70WAT      O  247   3.510   2.571   1.180
   70WAT     H1  248   3.420   2.538   1.160
   70WAT     H2  249   3.543   2.530   1.263
   71WAT      O  250   3.263   3.160   1.295
   71WAT     H1  251   3.357   3.173   1.318
   71WAT     H2  252   3.219   3.111   1.368
   72WAT      O  253   3.853   1.816   0.594
   72WAT     H1  254   3.835   1.908   0.623
   72WAT     H2  255   3.942   1.811   0.553
   73WAT      O  256   3.776   3.032   0.951
   73WAT     H1  257   3.792   3.127   0.936
   73WAT     H2  258   3.798   2.982   0.870
   74WAT      O  259   3.305   2.761   0.796
   74WAT     H1  260   3.319   2.857   0.812
   74WAT     H2  261   3.391   2.714   0.804
   75WAT      O  262   2.998   2.936   1.089
   75WAT     H1  263   3.080   2.882   1.094
   75WAT     H2  264   3.021   3.029   1.072
   76WAT      O  265   3.964   2.794   1.336
   76WAT     H1  266   3.889   2.774   1.396
   76WAT     H2  267   3.931   2.847   1.261
   77WAT      O  268   3.526   3.168   1.403
   77WAT     H1  269   3.550   3.081   1.365
   77WAT     H2  270   3.590   3.192   1.472
   78WAT      O  271   3.444   3.126   0.546
   78WAT     H1  272   3.373   3.145   0.610
   78WAT     H2  273   3.425   3.172   0.462
   79WAT      O  274   3.214   2.767   1.142
   79WAT     H1  275   3.291   2.826   1.152
   79WAT     H2  276   3.240   2.686   1.094
   80WAT      O  277   3.074   2.603   1.339
   80WAT     H1  278   3.112   2.559   1.417
   80WAT     H2  279   3.145   2.645   1.287
   81WAT      O  280   3.330   2.226   0.394
   81WAT     H1  281   3.247   2.270   0.422
   81WAT     H2  282   3.369   2.275   0.319
   82WAT      O  283   3.660   2.018   0.236
   82WAT     H1  284   3.690   2.085   0.171
   82WAT     H2  285   3.738   1.986   0.287
   83WAT      O  286   3.429   2.801   0.413
   83WAT     H1  287   3.463   2.893   0.419
   83WAT     H2  288   3.476   2.745   0.478
   84WAT      O  289   3.477   2.896   1.209
   84WAT     H1  290   3.510   2.926   1.122
   84WAT     H2  291   3.517   2.810   1.232
   85WAT      O  292   3.115   2.327   0.178
   85WAT     H1  293   3.209   2.353   0.170
   85WAT     H2  294   3.095   2.306   0.272
   86WAT      O  295   3.546   1.932   1.049
   86WAT     H1  296   3.528   1.882   0.967
   86WAT     H2  297   3.633   1.905   1.085
   87WAT      O  298   3.573   2.713   0.860
   87WAT     H1  299   3.553   2.809   0.863
   87WAT     H2  300   3.619   2.687   0.943
   88WAT      O  301   3.425   2.183   1.070
   88WAT     H1  302   3.477   2.100   1.067
   88WAT     H2  303   3.422   2.223   0.981
   89WAT      O  304   3.707   2.199   0.934
   89WAT     H1  305   3.756   2.144   0.999
   89WAT     H2  306   3.767   2.266   0.896
   90WAT      O  307   3.877   2.207   0.502
   90WAT     H1  308   3.900   2.289   0.455
   90WAT     H2  309   3.857   2.136   0.437
   91WAT      O  310   3.791   2.758   0.420
   91WAT     H1  311   3.757   2.849   0.415
   91WAT     H2  312   3.750   2.712   0.496
   92WAT      O  313   3.630   3.128   0.275
   92WAT     H1  314   3.558   3.189   0.301
   92WAT     H2  315   3.678   3.098   0.355
   93WAT      O  316   3.435   1.978   0.392
   93WAT     H1  317   3.508   1.990   0.327
   93WAT     H2  318   3.383   2.060   0.398
   94WAT      O  319   3.373   1.951   1.364
   94WAT     H1  320   3.298   2.001   1.327
   94WAT     H2  321   3.443   1.943   1.297
   95WAT      O  322   3.932   3.247   1.328
   95WAT     H1  323   3.863   3.255   1.397
   95WAT     H2  324   3.905   3.297   1.248
   96WAT      O  325   3.137   3.177   1.024
   96WAT     H1  326   3.171   3.157   1.113
   96WAT     H2  327   3.121   3.273   1.015
   97WAT      O  328   3.475   2.336   0.783
   97WAT     H1  329   3.471   2.346   0.686
   97WAT     H2  330   3.564   2.305   0.809
   98WAT      O  331   3.154   2.875   0.441
   98WAT     H1  332   3.135   2.948   0.503
   98WAT     H2  333   3.248   2.848   0.449
   99WAT      O  334   3.864   3.024   1.215
   99WAT     H1  335   3.806   3.046   1.139
   99WAT     H2  336   3.890   3.107   1.261
  100WAT      O  337   3.049   2.629   0.458
  100WAT     H1  338   3.084   2.718   0.435
  100WAT     H2  339   3.066   2.611   0.552
  101WAT      O  340   3.967   2.333   1.207
  101WAT     H1  341   4.000   2.419   1.175
  101WAT     H2  342   3.945   2.340   1.303
  102WAT      O  343   3.073   2.331   0.445
  102WAT     H1  344   3.025   2.308   0.527
  102WAT     H2  345   3.090   2.428   0.442
  103WAT      O  346   3.188   2.072   1.178
  103WAT     H1  347   3.105   2.090   1.130
  103WAT     H2  348   3.263   2.115   1.130
  104WAT      O  349   3.193   2.318   0.785
  104WAT     H1  350   3.288   2.295   0.775
  104WAT     H2  351   3.138   2.240   0.763
  105WAT      O  352   3.509   2.977   0.873
  105WAT     H1  353   3.433   3.023   0.830
  105WAT     H2  354   3.569   3.044   0.911
  106WAT      O  355   3.826   1.826   0.979
  106WAT     H1  356   3.854   1.909   1.024
  106WAT     H2  357   3.850   1.831   0.884
  107WAT      O  358   3.572   2.667   0.598
  107WAT     H1  359   3.551   2.574   0.577
  107WAT     H2  360   3.575   2.679   0.695
  108WAT      O  361   3.882   2.920   0.722
  108WAT     H1  362   3.973   2.955   0.731
  108WAT     H2  363   3.886   2.822   0.717
  109WAT      O  364   3.273   3.066   0.800
  109WAT     H1  365   3.234   3.082   0.889
  109WAT     H2  366   3.207   3.088   0.732
  110WAT      O  367   3.112   2.575   0.724
  110WAT     H1  368   3.124   2.478   0.737
  110WAT     H2  369   3.187   2.622   0.765
  111WAT      O  370   3.712   3.083   0.516
  111WAT     H1  371   3.766   3.049   0.589
  111WAT     H2  372   3.621   3.102   0.548
  112WAT      O  373   3.202   1.906   0.950
  112WAT     H1  374   3.155   1.963   0.886
  112WAT     H2  375   3.179   1.934   1.041
  113WAT      O  376   3.545   1.878   0.615
  113WAT     H1  377   3.635   1.907   0.641
  113WAT     H2  378   3.521   1.921   0.531
  114WAT      O  379   3.494   2.412   0.515
  114WAT     H1  380   3.443   2.333   0.490
  114WAT     H2  381   3.554   2.437   0.442
  115WAT      O  382   3.915   1.993   0.341
  115WAT     H1  383   3.968   2.043   0.276
  115WAT     H2  384   3.962   1.911   0.366
  116WAT      O  385   3.863   2.083   1.131
  116WAT     H1  386   3.902   2.162   1.174
  116WAT     H2  387   3.806   2.036   1.195
  117WAT      O  388   3.731   2.559   1.041
  117WAT     H1  389   3.661   2.554   1.110
  117WAT     H2  390   3.819   2.564   1.083
  118WAT      O  391   3.273   2.537   1.033
  118WAT     H1  392   3.315   2.549   0.945
  118WAT     H2  393   3.200   2.472   1.026
  119WAT      O  394   3.169   1.924   0.508
  119WAT     H1  395   3.108   1.904   0.434
  119WAT     H2  396   3.262   1.914   0.477
  120WAT      O  397   3.109   1.526   2.334
  120WAT     H1  398   3.148   1.589   2.270
  120WAT     H2  399   3.176   1.503   2.402
  121WAT      O  400   3.692   0.612   2.176
  121WAT     H1  401   3.780   0.570   2.171
  121WAT     H2  402   3.701   0.708   2.160
  122WAT      O  403   3.493   0.369   1.766
  122WAT     H1  404   3.435   0.441   1.735
  122WAT     H2  405   3.453   0.282   1.743
  123WAT      O  406   3.914   1.667   2.056
  123WAT     H1  407   3.965   1.653   2.138
  123WAT     H2  408   3.879   1.581   2.024
  124WAT      O  409   3.108   1.143   1.495
  124WAT     H1  410   3.109   1.064   1.552
  124WAT     H2  411   3.081   1.221   1.547
  125WAT      O  412   3.797   1.422   1.971
  125WAT     H1  413   3.753   1.428   1.884
  125WAT     H2  414   3.753   1.354   2.026
  126WAT      O  415   3.964   1.244   2.277
  126WAT     H1  416   4.008   1.196   2.351
  126WAT     H2  417   3.875   1.273   2.305
  127WAT      O  418   3.664   0.247   1.553
  127WAT     H1  419   3.574   0.275   1.580
  127WAT     H2  420   3.703   0.192   1.625
  128WAT      O  421   3.768   0.178   2.549
  128WAT     H1  422   3.805   0.234   2.478
  128WAT     H2  423   3.752   0.233   2.629
  129WAT      O  424   3.087   1.222   2.465
  129WAT     H1  425   3.076   1.310   2.424
  129WAT     H2  426   2.999   1.188   2.492
  130WAT      O  427   3.637   0.851   1.870
  130WAT     H1  428   3.685   0.931   1.898
  130WAT     H2  429   3.700   0.777   1.858
  131WAT      O  430   3.197   0.720   1.870
  131WAT     H1  431   3.267   0.739   1.935
  131WAT     H2  432   3.113   0.701   1.916
  132WAT      O  433   3.314   1.467   2.525
  132WAT     H1  434   3.402   1.509   2.521
  132WAT     H2  435   3.303   1.420   2.609
  133WAT      O  436   3.021   1.320   1.681
  133WAT     H1  437   2.989   1.408   1.654
  133WAT     H2  438   3.094   1.330   1.745
  134WAT      O  439   3.305   0.886   2.651
  134WAT     H1  440   3.319   0.982   2.666
  134WAT     H2  441   3.391   0.839   2.659
  135WAT      O  442   3.321   0.543   1.671
  135WAT     H1  443   3.270   0.527   1.589
  135WAT     H2  444   3.269   0.600   1.731
  136WAT      O  445   3.695   1.095   1.628
  136WAT     H1  446   3.734   1.019   1.581
  136WAT     H2  447   3.600   1.077   1.646
  137WAT      O  448   3.404   1.411   2.180
  137WAT     H1  449   3.437   1.503   2.182
  137WAT     H2  450   3.377   1.388   2.089
  138WAT      O  451   3.759   1.356   1.543
  138WAT     H1  452   3.759   1.267   1.583
  138WAT     H2  453   3.718   1.420   1.605
  139WAT      O  454   3.517   0.762   1.595
  139WAT     H1  455   3.547   0.815   1.671
  139WAT     H2  456   3.444   0.702   1.623
  140WAT      O  457   3.444   1.251   2.400
  140WAT     H1  458   3.373   1.270   2.465
  140WAT     H2  459   3.425   1.297   2.316
  141WAT      O  460   3.693   1.581   2.357
  141WAT     H1  461   3.713   1.675   2.373
  141WAT     H2  462   3.630   1.573   2.282
  142WAT      O  463   3.330   0.351   2.248
  142WAT     H1  464   3.247   0.395   2.276
  142WAT     H2  465   3.369   0.400   2.173
  143WAT      O  466   3.443   1.362   1.772
  143WAT     H1  467   3.359   1.403   1.801
  143WAT     H2  468   3.425   1.271   1.740
  144WAT      O  469   3.429   0.926   2.267
  144WAT     H1  470   3.463   1.018   2.273
  144WAT     H2  471   3.476   0.870   2.332
  145WAT      O  472   3.115   0.452   2.032
  145WAT     H1  473   3.209   0.478   2.024
  145WAT     H2  474   3.095   0.431   2.126
  146WAT      O  475   3.257   1.668   1.686
  146WAT     H1  476   3.310   1.678   1.605
  146WAT     H2  477   3.251   1.754   1.733
  147WAT      O  478   3.609   1.456   2.600
  147WAT     H1  479   3.691   1.438   2.649
  147WAT     H2  480   3.631   1.489   2.510
  148WAT      O  481   3.877   0.332   2.357
  148WAT     H1  482   3.900   0.414   2.310
  148WAT     H2  483   3.857   0.261   2.291
  149WAT      O  484   3.791   0.883   2.274
  149WAT     H1  485   3.757   0.974   2.269
  149WAT     H2  486   3.750   0.837   2.350
  150WAT      O  487   3.630   1.253   2.129
  150WAT     H1  488   3.558   1.314   2.156
  150WAT     H2  489   3.678   1.223   2.209
  151WAT      O  490   3.792   0.841   1.540
  151WAT     H1  491   3.707   0.812   1.502
  151WAT     H2  492   3.833   0.767   1.590
  152WAT      O  493   3.084   0.509   1.547
  152WAT     H1  494   3.053   0.492   1.638
  152WAT     H2  495   3.018   0.475   1.483
  153WAT      O  496   3.016   1.758   2.538
  153WAT     H1  497   3.056   1.800   2.459
  153WAT     H2  498   3.053   1.668   2.550
  154WAT      O  499   3.409   1.113   1.647
  154WAT     H1  500   3.378   1.140   1.559
  154WAT     H2  501   3.338   1.063   1.693
  155WAT      O  502   3.475   0.461   2.637
  155WAT     H1  503   3.471   0.471   2.540
  155WAT     H2  504   3.564   0.430   2.663
  156WAT      O  505   3.165   1.672   2.098
  156WAT     H1  506   3.221   1.712   2.029
  156WAT     H2  507   3.084   1.726   2.110
  157WAT      O  508   3.415   0.759   2.035
  157WAT     H1  509   3.410   0.825   2.107
  157WAT     H2  510   3.493   0.777   1.979
  158WAT      O  511   3.154   1.000   2.295
  158WAT     H1  512   3.135   1.073   2.358
  158WAT     H2  513   3.248   0.973   2.303
  159WAT      O  514   3.049   0.754   2.312
  159WAT     H1  515   3.084   0.843   2.289
  159WAT     H2  516   3.066   0.736   2.406
  160WAT      O  517   3.138   0.967   1.681
  160WAT     H1  518   3.162   0.872   1.688
  160WAT     H2  519   3.072   0.989   1.750
  161WAT      O  520   3.796   0.629   1.838
  161WAT     H1  521   3.851   0.683   1.899
  161WAT     H2  522   3.850   0.556   1.801
  162WAT      O  523   3.210   1.430   1.886
  162WAT     H1  524   3.140   1.419   1.954
  162WAT     H2  525   3.206   1.521   1.850
  163WAT      O  526   3.073   0.456   2.299
  163WAT     H1  527   3.025   0.433   2.381
  163WAT     H2  528   3.090   0.553   2.297
  164WAT      O  529   3.193   0.443   2.639
  164WAT     H1  530   3.288   0.420   2.629
  164WAT     H2  531   3.138   0.365   2.618
  165WAT      O  532   3.949   1.070   2.075
  165WAT     H1  533   3.876   1.100   2.017
  165WAT     H2  534   3.954   1.128   2.154
  166WAT      O  535   3.572   0.792   2.452
  166WAT     H1  536   3.551   0.699   2.431
  166WAT     H2  537   3.575   0.804   2.549
  167WAT      O  538   3.428   0.476   2.035
  167WAT     H1  539   3.456   0.444   1.947
  167WAT     H2  540   3.457   0.569   2.047
  168WAT      O  541   3.882   1.045   2.576
  168WAT     H1  542   3.973   1.080   2.585
  168WAT     H2  543   3.886   0.947   2.571
  169WAT      O  544   3.653   1.511   1.728
  169WAT     H1  545   3.564   1.474   1.749
  169WAT     H2  546   3.655   1.606   1.750
  170WAT      O  547   3.589   0.593   1.419
  170WAT     H1  548   3.512   0.535   1.404
  170WAT     H2  549   3.573   0.649   1.498
  171WAT      O  550   3.112   0.700   2.578
  171WAT     H1  551   3.124   0.603   2.591
  171WAT     H2  552   3.187   0.747   2.619
  172WAT      O  553   3.712   1.208   2.370
  172WAT     H1  554   3.766   1.174   2.443
  172WAT     H2  555   3.621   1.227   2.403
  173WAT      O  556   3.724   1.092   1.924
  173WAT     H1  557   3.663   1.148   1.976
  173WAT     H2  558   3.705   1.102   1.829
  174WAT      O  559   3.492   1.683   2.165
  174WAT     H1  560   3.472   1.757   2.226
  174WAT     H2  561   3.520   1.719   2.078
  175WAT      O  562   3.826   0.492   1.474
  175WAT     H1  563   3.820   0.395   1.488
  175WAT     H2  564   3.737   0.527   1.454
  176WAT      O  565   3.908   1.536   2.511
  176WAT     H1  566   3.832   1.511   2.454
  176WAT     H2  567   3.895   1.627   2.544
  177WAT      O  568   3.494   0.537   2.370
  177WAT     H1  569   3.443   0.458   2.344
  177WAT     H2  570   3.554   0.562   2.296
  178WAT      O  571   3.737   0.345   1.909
  178WAT     H1  572   3.768   0.433   1.936
  178WAT     H2  573   3.661   0.354   1.848
  179WAT      O  574   3.801   0.550   0.807
  179WAT     H1  575   3.849   0.618   0.755
  179WAT     H2  576   3.756   0.593   0.883
  180WAT      O  577   3.109   1.526   0.480
  180WAT     H1  578   3.148   1.589   0.415
  180WAT     H2  579   3.176   1.503   0.548
  181WAT      O  580   3.692   0.612   0.322
  181WAT     H1  581   3.780   0.570   0.317
  181WAT     H2  582   3.701   0.708   0.305
  182WAT      O  583   3.065   1.566   0.989
  182WAT     H1  584   3.098   1.637   1.047
  182WAT     H2  585   2.972   1.583   0.966
  183WAT      O  586   3.370   0.424   1.328
  183WAT     H1  587   3.388   0.393   1.237
  183WAT     H2  588   3.289   0.382   1.361
  184WAT      O  589   3.914   1.667   0.202
  184WAT     H1  590   3.965   1.653   0.284
  184WAT     H2  591   3.879   1.581   0.170
  185WAT      O  592   3.964   1.244   0.423
  185WAT     H1  593   4.008   1.196   0.496
  185WAT     H2  594   3.875   1.273   0.451
  186WAT      O  595   3.768   0.178   0.695
  186WAT     H1  596   3.805   0.234   0.624
  186WAT     H2  597   3.752   0.233   0.774
  187WAT      O  598   3.868   1.391   0.876
  187WAT     H1  599   3.878   1.455   0.950
  187WAT     H2  600   3.920   1.421   0.799
  188WAT      O  601   3.087   1.222   0.611
  188WAT     H1  602   3.076   1.310   0.569
  188WAT     H2  603   2.999   1.188   0.638
  189WAT      O  604   3.510   0.696   1.180
  189WAT     H1  605   3.420   0.663   1.160
  189WAT     H2  606   3.543   0.655   1.263
  190WAT      O  607   3.314   1.467   0.670
  190WAT     H1  608   3.402   1.509   0.667
  190WAT     H2  609   3.303   1.420   0.755
  191WAT      O  610   3.263   1.285   1.295
  191WAT     H1  611   3.357   1.298   1.318
  191WAT     H2  612   3.219   1.236   1.368
  192WAT      O  613   3.776   1.157   0.951
  192WAT     H1  614   3.792   1.252   0.936
  192WAT     H2  615   3.798   1.107   0.870
  193WAT      O  616   3.305   0.886   0.796
  193WAT     H1  617   3.319   0.982   0.812
  193WAT     H2  618   3.391   0.839   0.804
  194WAT      O  619   2.998   1.061   1.089
  194WAT     H1  620   3.080   1.007   1.094
  194WAT     H2  621   3.021   1.154   1.072
  195WAT      O  622   3.964   0.919   1.336
  195WAT     H1  623   3.889   0.899   1.396
  195WAT     H2  624   3.931   0.972   1.261
  196WAT      O  625   3.873   1.559   1.091
  196WAT     H1  626   3.885   1.642   1.041
  196WAT     H2  627   3.780   1.550   1.118
  197WAT      O  628   3.404   1.411   0.326
  197WAT     H1  629   3.437   1.503   0.327
  197WAT     H2  630   3.377   1.388   0.235
  198WAT      O  631   3.526   1.293   1.403
  198WAT     H1  632   3.550   1.206   1.365
  198WAT     H2  633   3.590   1.317   1.472
  199WAT      O  634   3.605   1.486   1.187
  199WAT     H1  635   3.561   1.456   1.269
  199WAT     H2  636   3.544   1.473   1.111
  200WAT      O  637   3.444   1.251   0.546
  200WAT     H1  638   3.373   1.270   0.610
  200WAT     H2  639   3.425   1.297   0.462
  201WAT      O  640   3.683   1.688   1.353
  201WAT     H1  641   3.597   1.671   1.396
  201WAT     H2  642   3.688   1.638   1.269
  202WAT      O  643   3.214   0.892   1.142
  202WAT     H1  644   3.291   0.951   1.152
  202WAT     H2  645   3.240   0.811   1.094
  203WAT      O  646   3.693   1.581   0.503
  203WAT     H1  647   3.713   1.675   0.518
  203WAT     H2  648   3.630   1.573   0.428
  204WAT      O  649   3.074   0.728   1.339
  204WAT     H1  650   3.112   0.684   1.417
  204WAT     H2  651   3.145   0.770   1.287
  205WAT      O  652   3.330   0.351   0.394
  205WAT     H1  653   3.247   0.395   0.422
  205WAT     H2  654   3.369   0.400   0.319
  206WAT      O  655   3.450   1.485   0.961
  206WAT     H1  656   3.425   1.579   0.946
  206WAT     H2  657   3.514   1.457   0.892
  207WAT      O  658   3.429   0.926   0.413
  207WAT     H1  659   3.463   1.018   0.419
  207WAT     H2  660   3.476   0.870   0.478
  208WAT      O  661   3.477   1.021   1.209
  208WAT     H1  662   3.510   1.051   1.122
  208WAT     H2  663   3.517   0.935   1.232
  209WAT      O  664   3.115   0.452   0.178
  209WAT     H1  665   3.209   0.478   0.170
  209WAT     H2  666   3.095   0.431   0.272
  210WAT      O  667   3.375   1.700   1.440
  210WAT     H1  668   3.329   1.638   1.378
  210WAT     H2  669   3.359   1.792   1.411
  211WAT      O  670   3.573   0.838   0.860
  211WAT     H1  671   3.553   0.934   0.863
  211WAT     H2  672   3.619   0.812   0.943
  212WAT      O  673   3.425   0.308   1.070
  212WAT     H1  674   3.477   0.225   1.067
  212WAT     H2  675   3.422   0.348   0.981
  213WAT      O  676   3.707   0.324   0.934
  213WAT     H1  677   3.756   0.269   0.999
  213WAT     H2  678   3.767   0.391   0.896
  214WAT      O  679   3.609   1.456   0.745
  214WAT     H1  680   3.691   1.438   0.795
  214WAT     H2  681   3.631   1.489   0.656
  215WAT      O  682   3.877   0.332   0.502
  215WAT     H1  683   3.900   0.414   0.455
  215WAT     H2  684   3.857   0.261   0.437
  216WAT      O  685   3.791   0.883   0.420
  216WAT     H1  686   3.757   0.974   0.415
  216WAT     H2  687   3.750   0.837   0.496
  217WAT      O  688   3.630   1.253   0.275
  217WAT     H1  689   3.558   1.314   0.301
  217WAT     H2  690   3.678   1.223   0.355
  218WAT      O  691   3.016   1.758   0.683
  218WAT     H1  692   3.056   1.800   0.605
  218WAT     H2  693   3.053   1.668   0.695
  219WAT      O  694   3.932   1.372   1.328
  219WAT     H1  695   3.863   1.380   1.397
  219WAT     H2  696   3.905   1.422   1.248
  220WAT      O  697   3.137   1.302   1.024
  220WAT     H1  698   3.171   1.282   1.113
  220WAT     H2  699   3.121   1.398   1.015
  221WAT      O  700   3.475   0.461   0.783
  221WAT     H1  701   3.471   0.471   0.686
  221WAT     H2  702   3.564   0.430   0.809
  222WAT      O  703   3.165   1.672   0.244
  222WAT     H1  704   3.221   1.712   0.175
  222WAT     H2  705   3.084   1.726   0.256
  223WAT      O  706   3.154   1.000   0.441
  223WAT     H1  707   3.135   1.073   0.503
  223WAT     H2  708   3.248   0.973   0.449
  224WAT      O  709   3.864   1.149   1.215
  224WAT     H1  710   3.806   1.171   1.139
  224WAT     H2  711   3.890   1.232   1.261
  225WAT      O  712   3.049   0.754   0.458
  225WAT     H1  713   3.084   0.843   0.435
  225WAT     H2  714   3.066   0.736   0.552
  226WAT      O  715   3.967   0.458   1.207
  226WAT     H1  716   4.000   0.544   1.175
  226WAT     H2  717   3.945   0.465   1.303
  227WAT      O  718   3.073   0.456   0.445
  227WAT     H1  719   3.025   0.433   0.527
  227WAT     H2  720   3.090   0.553   0.442
  228WAT      O  721   3.188   0.197   1.178
  228WAT     H1  722   3.105   0.215   1.130
  228WAT     H2  723   3.263   0.240   1.130
  229WAT      O  724   3.193   0.443   0.785
  229WAT     H1  725   3.288   0.420   0.775
  229WAT     H2  726   3.138   0.365   0.763
  230WAT      O  727   3.509   1.102   0.873
  230WAT     H1  728   3.433   1.148   0.830
  230WAT     H2  729   3.569   1.169   0.911
  231WAT      O  730   3.572   0.792   0.598
  231WAT     H1  731   3.551   0.699   0.577
  231WAT     H2  732   3.575   0.804   0.695
  232WAT      O  733   3.882   1.045   0.722
  232WAT     H1  734   3.973   1.080   0.731
  232WAT     H2  735   3.886   0.947   0.717
  233WAT      O  736   3.273   1.191   0.800
  233WAT     H1  737   3.234   1.207   0.889
  233WAT     H2  738   3.207   1.213   0.732
  234WAT      O  739   3.112   0.700   0.724
  234WAT     H1  740   3.124   0.603   0.737
  234WAT     H2  741   3.187   0.747   0.765
  235WAT      O  742   3.712   1.208   0.516
  235WAT     H1  743   3.766   1.174   0.589
  235WAT     H2  744   3.621   1.227   0.548
  236WAT      O  745   3.492   1.683   0.311
  236WAT     H1  746   3.472   1.757   0.372
  236WAT     H2  747   3.520   1.719   0.224
  237WAT      O  748   3.908   1.536   0.657
  237WAT     H1  749   3.832   1.511   0.600
  237WAT     H2  750   3.895   1.627   0.690
  238WAT      O  751   3.494   0.537   0.515
  238WAT     H1  752   3.443   0.458   0.490
  238WAT     H2  753   3.554   0.562   0.442
  239WAT      O  754   3.731   0.684   1.041
  239WAT     H1  755   3.661   0.679   1.110
  239WAT     H2  756   3.819   0.689   1.083
  240WAT      O  757   3.273   0.662   1.033
  240WAT     H1  758   3.315   0.674   0.945
  240WAT     H2  759   3.200   0.597   1.026
  241WAT      O  760   2.163   3.246   1.656
  241WAT     H1  761   2.234   3.186   1.624
  241WAT     H2  762   2.090   3.246   1.592
  242WAT      O  763   1.824   2.487   2.176
  242WAT     H1  764   1.912   2.445   2.171
  242WAT     H2  765   1.832   2.583   2.160
  243WAT      O  766   2.463   2.862   2.249
  243WAT     H1  767   2.489   2.948   2.210
  243WAT     H2  768   2.471   2.866   2.346
  244WAT      O  769   2.687   2.084   1.705
  244WAT     H1  770   2.605   2.030   1.713
  244WAT     H2  771   2.752   2.035   1.651
  245WAT      O  772   2.090   2.363   2.166
  245WAT     H1  773   2.138   2.293   2.117
  245WAT     H2  774   2.155   2.428   2.201
  246WAT      O  775   2.394   3.115   1.562
  246WAT     H1  776   2.478   3.149   1.525
  246WAT     H2  777   2.408   3.089   1.656
  247WAT      O  778   1.240   3.018   1.495
  247WAT     H1  779   1.240   2.939   1.552
  247WAT     H2  780   1.213   3.096   1.547
  248WAT      O  781   2.966   2.077   2.010
  248WAT     H1  782   2.987   2.173   2.012
  248WAT     H2  783   3.000   2.038   1.927
  249WAT      O  784   1.929   3.297   1.971
  249WAT     H1  785   1.884   3.303   1.884
  249WAT     H2  786   1.885   3.229   2.026
  250WAT      O  787   2.096   3.119   2.277
  250WAT     H1  788   2.140   3.071   2.351
  250WAT     H2  789   2.007   3.148   2.305
  251WAT      O  790   1.216   2.084   2.583
  251WAT     H1  791   1.118   2.080   2.586
  251WAT     H2  792   1.250   2.010   2.528
  252WAT      O  793   1.900   2.053   2.549
  252WAT     H1  794   1.937   2.109   2.478
  252WAT     H2  795   1.884   2.108   2.629
  253WAT      O  796   1.219   3.097   2.465
  253WAT     H1  797   1.208   3.185   2.424
  253WAT     H2  798   1.131   3.063   2.492
  254WAT      O  799   2.673   2.999   1.943
  254WAT     H1  800   2.678   2.938   2.019
  254WAT     H2  801   2.677   3.092   1.975
  255WAT      O  802   1.769   2.726   1.870
  255WAT     H1  803   1.817   2.806   1.898
  255WAT     H2  804   1.832   2.652   1.858
  256WAT      O  805   1.328   2.595   1.870
  256WAT     H1  806   1.398   2.614   1.935
  256WAT     H2  807   1.244   2.576   1.916
  257WAT      O  808   2.508   3.129   2.196
  257WAT     H1  809   2.584   3.184   2.168
  257WAT     H2  810   2.428   3.184   2.199
  258WAT      O  811   2.834   3.028   2.364
  258WAT     H1  812   2.864   2.994   2.277
  258WAT     H2  813   2.786   2.957   2.412
  259WAT      O  814   2.378   2.685   2.049
  259WAT     H1  815   2.418   2.756   2.102
  259WAT     H2  816   2.427   2.674   1.965
  260WAT      O  817   2.188   1.848   1.916
  260WAT     H1  818   2.138   1.778   1.962
  260WAT     H2  819   2.126   1.908   1.870
  261WAT      O  820   2.413   3.038   1.838
  261WAT     H1  821   2.370   3.098   1.903
  261WAT     H2  822   2.508   3.031   1.858
  262WAT      O  823   1.984   1.816   2.448
  262WAT     H1  824   1.967   1.908   2.477
  262WAT     H2  825   2.073   1.811   2.407
  263WAT      O  826   1.153   3.195   1.681
  263WAT     H1  827   1.121   3.283   1.654
  263WAT     H2  828   1.226   3.205   1.745
  264WAT      O  829   1.437   2.761   2.651
  264WAT     H1  830   1.451   2.857   2.666
  264WAT     H2  831   1.523   2.714   2.659
  265WAT      O  832   2.094   2.687   1.980
  265WAT     H1  833   2.072   2.773   2.020
  265WAT     H2  834   2.189   2.668   1.993
  266WAT      O  835   2.496   2.628   1.818
  266WAT     H1  836   2.573   2.661   1.767
  266WAT     H2  837   2.414   2.649   1.769
  267WAT      O  838   1.453   2.418   1.671
  267WAT     H1  839   1.402   2.402   1.589
  267WAT     H2  840   1.400   2.475   1.731
  268WAT      O  841   1.826   2.970   1.628
  268WAT     H1  842   1.866   2.894   1.581
  268WAT     H2  843   1.732   2.952   1.646
  269WAT      O  844   2.227   2.412   1.477
  269WAT     H1  845   2.272   2.498   1.464
  269WAT     H2  846   2.133   2.427   1.500
  270WAT      O  847   2.455   1.836   1.987
  270WAT     H1  848   2.464   1.739   1.995
  270WAT     H2  849   2.360   1.859   1.979
  271WAT      O  850   2.678   2.112   1.983
  271WAT     H1  851   2.764   2.087   2.025
  271WAT     H2  852   2.687   2.105   1.886
  272WAT      O  853   1.891   3.231   1.543
  272WAT     H1  854   1.891   3.142   1.583
  272WAT     H2  855   1.850   3.295   1.605
  273WAT      O  856   2.278   3.049   2.487
  273WAT     H1  857   2.324   2.963   2.495
  273WAT     H2  858   2.331   3.119   2.529
  274WAT      O  859   1.648   2.637   1.595
  274WAT     H1  860   1.679   2.690   1.671
  274WAT     H2  861   1.576   2.577   1.623
  275WAT      O  862   2.257   2.805   1.758
  275WAT     H1  863   2.299   2.892   1.770
  275WAT     H2  864   2.190   2.791   1.827
  276WAT      O  865   2.971   2.577   2.036
  276WAT     H1  866   2.986   2.614   2.126
  276WAT     H2  867   2.950   2.482   2.044
  277WAT      O  868   2.183   3.266   1.922
  277WAT     H1  869   2.089   3.257   1.946
  277WAT     H2  870   2.191   3.278   1.825
  278WAT      O  871   2.445   1.836   2.672
  278WAT     H1  872   2.448   1.787   2.587
  278WAT     H2  873   2.365   1.891   2.675
  279WAT      O  874   1.576   3.126   2.400
  279WAT     H1  875   1.505   3.145   2.465
  279WAT     H2  876   1.557   3.172   2.316
  280WAT      O  877   2.464   2.223   2.091
  280WAT     H1  878   2.448   2.251   2.184
  280WAT     H2  879   2.553   2.185   2.083
  281WAT      O  880   2.533   2.665   1.473
  281WAT     H1  881   2.440   2.675   1.505
  281WAT     H2  882   2.540   2.586   1.417
  282WAT      O  883   2.391   2.173   2.449
  282WAT     H1  884   2.372   2.236   2.377
  282WAT     H2  885   2.380   2.081   2.416
  283WAT      O  886   1.462   2.226   2.248
  283WAT     H1  887   1.379   2.270   2.276
  283WAT     H2  888   1.501   2.275   2.173
  284WAT      O  889   1.792   2.018   2.090
  284WAT     H1  890   1.822   2.085   2.025
  284WAT     H2  891   1.869   1.986   2.141
  285WAT      O  892   2.160   2.357   1.753
  285WAT     H1  893   2.168   2.318   1.663
  285WAT     H2  894   2.244   2.345   1.801
  286WAT      O  895   2.655   3.117   1.497
  286WAT     H1  896   2.706   3.068   1.565
  286WAT     H2  897   2.624   3.054   1.428
  287WAT      O  898   1.575   3.237   1.772
  287WAT     H1  899   1.491   3.278   1.801
  287WAT     H2  900   1.557   3.146   1.740
  288WAT      O  901   1.561   2.801   2.267
  288WAT     H1  902   1.594   2.893   2.273
  288WAT     H2  903   1.608   2.745   2.332
  289WAT      O  904   1.247   2.327   2.032
  289WAT     H1  905   1.341   2.353   2.024
  289WAT     H2  906   1.227   2.306   2.126
  290WAT      O  907   2.671   2.189   2.533
  290WAT     H1  908   2.583   2.178   2.492
  290WAT     H2  909   2.714   2.101   2.543
  291WAT      O  910   2.241   3.338   2.179
  291WAT     H1  911   2.212   3.327   2.087
  291WAT     H2  912   2.196   3.272   2.236
  292WAT      O  913   2.948   2.818   1.904
  292WAT     H1  914   2.957   2.732   1.951
  292WAT     H2  915   2.854   2.844   1.903
  293WAT      O  916   3.053   2.057   1.743
  293WAT     H1  917   3.051   2.147   1.706
  293WAT     H2  918   2.985   2.002   1.698
  294WAT      O  919   2.776   2.367   2.029
  294WAT     H1  920   2.730   2.285   1.999
  294WAT     H2  921   2.767   2.436   1.960
  295WAT      O  922   2.807   3.040   1.695
  295WAT     H1  923   2.765   3.024   1.782
  295WAT     H2  924   2.879   3.106   1.705
  296WAT      O  925   2.008   2.207   2.357
  296WAT     H1  926   2.032   2.289   2.310
  296WAT     H2  927   1.989   2.136   2.291
  297WAT      O  928   1.923   2.758   2.274
  297WAT     H1  929   1.889   2.849   2.269
  297WAT     H2  930   1.882   2.712   2.350
  298WAT      O  931   1.761   3.128   2.129
  298WAT     H1  932   1.690   3.189   2.156
  298WAT     H2  933   1.810   3.098   2.209
  299WAT      O  934   1.567   1.978   2.246
  299WAT     H1  935   1.640   1.990   2.181
  299WAT     H2  936   1.514   2.060   2.252
  300WAT      O  937   1.924   2.716   1.540
  300WAT     H1  938   1.839   2.687   1.502
  300WAT     H2  939   1.964   2.642   1.590
  301WAT      O  940   1.216   2.384   1.547
  301WAT     H1  941   1.185   2.367   1.638
  301WAT     H2  942   1.149   2.350   1.483
  302WAT      O  943   1.540   2.988   1.647
  302WAT     H1  944   1.509   3.015   1.559
  302WAT     H2  945   1.470   2.938   1.693
  303WAT      O  946   2.669   2.568   2.543
  303WAT     H1  947   2.579   2.574   2.581
  303WAT     H2  948   2.731   2.532   2.610
  304WAT      O  949   2.378   2.403   2.301
  304WAT     H1  950   2.470   2.432   2.281
  304WAT     H2  951   2.332   2.474   2.350
  305WAT      O  952   2.268   2.697   1.518
  305WAT     H1  953   2.262   2.762   1.591
  305WAT     H2  954   2.222   2.732   1.439
  306WAT      O  955   2.451   3.242   2.613
  306WAT     H1  956   2.543   3.276   2.620
  306WAT     H2  957   2.415   3.229   2.703
  307WAT      O  958   1.422   1.832   1.904
  307WAT     H1  959   1.381   1.921   1.904
  307WAT     H2  960   1.517   1.840   1.882
  308WAT      O  961   1.694   1.835   1.919
  308WAT     H1  962   1.759   1.825   1.846
  308WAT     H2  963   1.720   1.912   1.974
  309WAT      O  964   2.735   2.812   2.167
  309WAT     H1  965   2.753   2.721   2.136
  309WAT     H2  966   2.645   2.817   2.205
  310WAT      O  967   1.607   2.336   2.637
  310WAT     H1  968   1.603   2.346   2.540
  310WAT     H2  969   1.696   2.305   2.663
  311WAT      O  970   2.312   2.100   1.714
  311WAT     H1  971   2.360   2.018   1.736
  311WAT     H2  972   2.368   2.177   1.736
  312WAT      O  973   1.547   2.634   2.035
  312WAT     H1  974   1.542   2.700   2.107
  312WAT     H2  975   1.625   2.652   1.979
  313WAT      O  976   1.286   2.875   2.295
  313WAT     H1  977   1.267   2.948   2.358
  313WAT     H2  978   1.380   2.848   2.303
  314WAT      O  979   2.760   2.481   1.768
  314WAT     H1  980   2.755   2.577   1.752
  314WAT     H2  981   2.713   2.434   1.696
  315WAT      O  982   1.180   2.629   2.312
  315WAT     H1  983   1.215   2.718   2.289
  315WAT     H2  984   1.198   2.611   2.406
  316WAT      O  985   1.270   2.842   1.681
  316WAT     H1  986   1.294   2.747   1.688
  316WAT     H2  987   1.204   2.864   1.750
  317WAT      O  988   2.441   2.827   2.521
  317WAT     H1  989   2.528   2.845   2.563
  317WAT     H2  990   2.394   2.758   2.572
  318WAT      O  991   1.928   2.504   1.838
  318WAT     H1  992   1.983   2.558   1.899
  318WAT     H2  993   1.982   2.431   1.801
  319WAT      O  994   1.205   2.331   2.299
  319WAT     H1  995   1.157   2.308   2.381
  319WAT     H2  996   1.221   2.428   2.297
  320WAT      O  997   1.325   2.318   2.639
  320WAT     H1  998   1.420   2.295   2.629
  320WAT     H2  999   1.270   2.240   2.618
  321WAT      O 1000   2.966   1.848   2.178
  321WAT     H1 1001   2.958   1.931   2.127
  321WAT     H2 1002   2.881   1.800   2.177
  322WAT      O 1003   2.643   2.482   2.270
  322WAT     H1 1004   2.669   2.521   2.355
  322WAT     H2 1005   2.722   2.441   2.228
  323WAT      O 1006   2.080   2.945   2.075
  323WAT     H1 1007   2.008   2.975   2.017
  323WAT     H2 1008   2.085   3.003   2.154
  324WAT      O 1009   2.837   1.972   2.509
  324WAT     H1 1010   2.881   1.921   2.579
  324WAT     H2 1011   2.844   1.924   2.424
  325WAT      O 1012   1.704   2.667   2.452
  325WAT     H1 1013   1.683   2.574   2.431
  325WAT     H2 1014   1.707   2.679   2.549
  326WAT      O 1015   1.560   2.351   2.035
  326WAT     H1 1016   1.587   2.319   1.947
  326WAT     H2 1017   1.589   2.444   2.047
  327WAT      O 1018   2.014   2.920   2.576
  327WAT     H1 1019   2.105   2.955   2.585
  327WAT     H2 1020   2.018   2.822   2.571
  328WAT      O 1021   2.097   2.655   2.520
  328WAT     H1 1022   2.118   2.648   2.425
  328WAT     H2 1023   2.175   2.631   2.573
  329WAT      O 1024   1.244   2.575   2.578
  329WAT     H1 1025   1.256   2.478   2.591
  329WAT     H2 1026   1.319   2.622   2.619
  330WAT      O 1027   1.843   3.083   2.370
  330WAT     H1 1028   1.898   3.049   2.443
  330WAT     H2 1029   1.753   3.102   2.403
  331WAT      O 1030   1.856   2.967   1.924
  331WAT     H1 1031   1.795   3.023   1.976
  331WAT     H2 1032   1.836   2.977   1.829
  332WAT      O 1033   2.732   2.830   2.541
  332WAT     H1 1034   2.769   2.849   2.630
  332WAT     H2 1035   2.723   2.733   2.530
  333WAT      O 1036   2.215   2.129   2.046
  333WAT     H1 1037   2.309   2.145   2.068
  333WAT     H2 1038   2.209   2.099   1.953
  334WAT      O 1039   2.421   1.950   2.266
  334WAT     H1 1040   2.418   1.921   2.172
  334WAT     H2 1041   2.470   1.884   2.318
  335WAT      O 1042   2.901   2.347   2.494
  335WAT     H1 1043   2.826   2.284   2.506
  335WAT     H2 1044   2.866   2.438   2.486
  336WAT      O 1045   2.943   3.302   2.151
  336WAT     H1 1046   2.975   3.213   2.125
  336WAT     H2 1047   3.004   3.341   2.217
  337WAT      O 1048   2.704   2.748   1.672
  337WAT     H1 1049   2.664   2.726   1.586
  337WAT     H2 1050   2.755   2.831   1.665
  338WAT      O 1051   2.188   2.626   2.253
  338WAT     H1 1052   2.108   2.671   2.218
  338WAT     H2 1053   2.260   2.631   2.186
  339WAT      O 1054   2.417   2.367   1.865
  339WAT     H1 1055   2.433   2.463   1.879
  339WAT     H2 1056   2.441   2.317   1.945
  340WAT      O 1057   1.677   1.878   2.470
  340WAT     H1 1058   1.767   1.907   2.496
  340WAT     H2 1059   1.653   1.921   2.385
  341WAT      O 1060   2.617   2.326   1.565
  341WAT     H1 1061   2.548   2.304   1.499
  341WAT     H2 1062   2.638   2.247   1.618
  342WAT      O 1063   2.966   2.327   1.789
  342WAT     H1 1064   2.902   2.401   1.795
  342WAT     H2 1065   3.025   2.328   1.867
  343WAT      O 1066   3.019   3.044   2.079
  343WAT     H1 1067   2.990   2.981   2.010
  343WAT     H2 1068   3.079   2.999   2.141
  344WAT      O 1069   1.626   2.412   2.370
  344WAT     H1 1070   1.575   2.333   2.344
  344WAT     H2 1071   1.686   2.437   2.296
  345WAT      O 1072   2.046   1.993   2.195
  345WAT     H1 1073   2.100   2.043   2.130
  345WAT     H2 1074   2.093   1.911   2.220
  346WAT      O 1075   1.869   2.220   1.909
  346WAT     H1 1076   1.900   2.308   1.936
  346WAT     H2 1077   1.793   2.229   1.848
  347WAT      O 1078   1.301   1.924   2.362
  347WAT     H1 1079   1.240   1.904   2.288
  347WAT     H2 1080   1.394   1.914   2.332
  348WAT      O 1081   1.933   2.425   0.807
  348WAT     H1 1082   1.981   2.493   0.755
  348WAT     H2 1083   1.888   2.468   0.883
  349WAT      O 1084   1.824   2.487   0.322
  349WAT     H1 1085   1.912   2.445   0.317
  349WAT     H2 1086   1.832   2.583   0.305
  350WAT      O 1087   2.463   2.862   0.394
  350WAT     H1 1088   2.489   2.948   0.356
  350WAT     H2 1089   2.471   2.866   0.492
  351WAT      O 1090   2.090   2.363   0.312
  351WAT     H1 1091   2.138   2.293   0.263
  351WAT     H2 1092   2.155   2.428   0.347
  352WAT      O 1093   2.096   3.119   0.423
  352WAT     H1 1094   2.140   3.071   0.496
  352WAT     H2 1095   2.007   3.148   0.451
  353WAT      O 1096   1.560   1.757   0.861
  353WAT     H1 1097   1.475   1.804   0.877
  353WAT     H2 1098   1.604   1.795   0.782
  354WAT      O 1099   1.216   2.084   0.728
  354WAT     H1 1100   1.118   2.080   0.732
  354WAT     H2 1101   1.250   2.010   0.674
  355WAT      O 1102   1.900   2.053   0.695
  355WAT     H1 1103   1.937   2.109   0.624
  355WAT     H2 1104   1.884   2.108   0.774
  356WAT      O 1105   2.000   3.266   0.876
  356WAT     H1 1106   2.009   3.330   0.950
  356WAT     H2 1107   2.052   3.296   0.799
  357WAT      O 1108   1.219   3.097   0.611
  357WAT     H1 1109   1.208   3.185   0.569
  357WAT     H2 1110   1.131   3.063   0.638
  358WAT      O 1111   1.642   2.571   1.180
  358WAT     H1 1112   1.552   2.538   1.160
  358WAT     H2 1113   1.674   2.530   1.263
  359WAT      O 1114   2.562   2.748   1.102
  359WAT     H1 1115   2.569   2.823   1.165
  359WAT     H2 1116   2.557   2.664   1.152
  360WAT      O 1117   2.909   3.094   0.866
  360WAT     H1 1118   3.004   3.118   0.858
  360WAT     H2 1119   2.901   3.016   0.925
  361WAT      O 1120   2.508   3.129   0.341
  361WAT     H1 1121   2.584   3.184   0.314
  361WAT     H2 1122   2.428   3.184   0.345
  362WAT      O 1123   1.395   3.160   1.295
  362WAT     H1 1124   1.489   3.173   1.318
  362WAT     H2 1125   1.351   3.111   1.368
  363WAT      O 1126   2.834   3.028   0.510
  363WAT     H1 1127   2.864   2.994   0.423
  363WAT     H2 1128   2.786   2.957   0.558
  364WAT      O 1129   2.938   2.071   1.069
  364WAT     H1 1130   2.903   2.117   1.148
  364WAT     H2 1131   2.916   2.122   0.989
  365WAT      O 1132   1.984   1.816   0.594
  365WAT     H1 1133   1.967   1.908   0.623
  365WAT     H2 1134   2.073   1.811   0.553
  366WAT      O 1135   1.908   3.032   0.951
  366WAT     H1 1136   1.924   3.127   0.936
  366WAT     H2 1137   1.930   2.982   0.870
  367WAT      O 1138   2.712   1.881   0.952
  367WAT     H1 1139   2.638   1.904   0.893
  367WAT     H2 1140   2.701   1.926   1.038
  368WAT      O 1141   1.437   2.761   0.796
  368WAT     H1 1142   1.451   2.857   0.812
  368WAT     H2 1143   1.523   2.714   0.804
  369WAT      O 1144   2.598   2.290   1.058
  369WAT     H1 1145   2.692   2.278   1.032
  369WAT     H2 1146   2.543   2.294   0.977
  370WAT      O 1147   2.895   3.129   1.325
  370WAT     H1 1148   2.947   3.085   1.396
  370WAT     H2 1149   2.821   3.179   1.365
  371WAT      O 1150   2.484   2.519   1.233
  371WAT     H1 1151   2.387   2.533   1.233
  371WAT     H2 1152   2.504   2.434   1.188
  372WAT      O 1153   1.130   2.936   1.089
  372WAT     H1 1154   1.212   2.882   1.094
  372WAT     H2 1155   1.153   3.029   1.072
  373WAT      O 1156   2.417   2.220   1.416
  373WAT     H1 1157   2.398   2.152   1.347
  373WAT     H2 1158   2.335   2.265   1.441
  374WAT      O 1159   2.890   2.814   1.332
  374WAT     H1 1160   2.945   2.887   1.297
  374WAT     H2 1161   2.947   2.743   1.367
  375WAT      O 1162   2.095   2.794   1.336
  375WAT     H1 1163   2.021   2.774   1.396
  375WAT     H2 1164   2.063   2.847   1.261
  376WAT      O 1165   2.170   2.592   1.176
  376WAT     H1 1166   2.155   2.669   1.234
  376WAT     H2 1167   2.214   2.621   1.094
  377WAT      O 1168   2.612   2.885   1.328
  377WAT     H1 1169   2.565   2.820   1.385
  377WAT     H2 1170   2.709   2.871   1.337
  378WAT      O 1171   2.266   2.154   1.030
  378WAT     H1 1172   2.311   2.092   1.090
  378WAT     H2 1173   2.202   2.209   1.081
  379WAT      O 1174   1.658   3.168   1.403
  379WAT     H1 1175   1.681   3.081   1.365
  379WAT     H2 1176   1.722   3.192   1.472
  380WAT      O 1177   2.210   1.976   0.804
  380WAT     H1 1178   2.217   2.041   0.877
  380WAT     H2 1179   2.161   2.016   0.729
  381WAT      O 1180   2.278   3.049   0.632
  381WAT     H1 1181   2.324   2.963   0.640
  381WAT     H2 1182   2.331   3.119   0.675
  382WAT      O 1183   2.812   3.254   1.096
  382WAT     H1 1184   2.855   3.204   1.168
  382WAT     H2 1185   2.843   3.219   1.010
  383WAT      O 1186   2.971   2.577   0.182
  383WAT     H1 1187   2.986   2.614   0.272
  383WAT     H2 1188   2.950   2.482   0.190
  384WAT      O 1189   2.445   1.836   0.818
  384WAT     H1 1190   2.448   1.787   0.733
  384WAT     H2 1191   2.365   1.891   0.821
  385WAT      O 1192   1.576   3.126   0.546
  385WAT     H1 1193   1.505   3.145   0.610
  385WAT     H2 1194   1.557   3.172   0.462
  386WAT      O 1195   2.464   2.223   0.237
  386WAT     H1 1196   2.448   2.251   0.330
  386WAT     H2 1197   2.553   2.185   0.229
  387WAT      O 1198   2.222   2.986   0.981
  387WAT     H1 1199   2.139   2.987   1.032
  387WAT     H2 1200   2.274   3.067   1.000
  388WAT      O 1201   1.345   2.767   1.142
  388WAT     H1 1202   1.423   2.826   1.152
  388WAT     H2 1203   1.372   2.686   1.094
  389WAT      O 1204   2.413   2.292   0.851
  389WAT     H1 1205   2.339   2.249   0.899
  389WAT     H2 1206   2.430   2.245   0.767
  390WAT      O 1207   2.314   2.741   1.000
  390WAT     H1 1208   2.407   2.743   1.031
  390WAT     H2 1209   2.284   2.831   0.978
  391WAT      O 1210   2.391   2.173   0.595
  391WAT     H1 1211   2.372   2.236   0.523
  391WAT     H2 1212   2.380   2.081   0.562
  392WAT      O 1213   1.205   2.603   1.339
  392WAT     H1 1214   1.244   2.559   1.417
  392WAT     H2 1215   1.277   2.645   1.287
  393WAT      O 1216   1.462   2.226   0.394
  393WAT     H1 1217   1.379   2.270   0.422
  393WAT     H2 1218   1.501   2.275   0.319
  394WAT      O 1219   1.792   2.018   0.236
  394WAT     H1 1220   1.822   2.085   0.171
  394WAT     H2 1221   1.869   1.986   0.287
  395WAT      O 1222   1.561   2.801   0.413
  395WAT     H1 1223   1.594   2.893   0.419
  395WAT     H2 1224   1.608   2.745   0.478
  396WAT      O 1225   1.609   2.896   1.209
  396WAT     H1 1226   1.642   2.926   1.122
  396WAT     H2 1227   1.648   2.810   1.232
  397WAT      O 1228   1.247   2.327   0.178
  397WAT     H1 1229   1.341   2.353   0.170
  397WAT     H2 1230   1.227   2.306   0.272
  398WAT      O 1231   2.671   2.189   0.679
  398WAT     H1 1232   2.583   2.178   0.638
  398WAT     H2 1233   2.714   2.101   0.688
  399WAT      O 1234   1.678   1.932   1.049
  399WAT     H1 1235   1.660   1.882   0.967
  399WAT     H2 1236   1.765   1.905   1.085
  400WAT      O 1237   2.241   3.338   0.325
  400WAT     H1 1238   2.212   3.327   0.232
  400WAT     H2 1239   2.196   3.272   0.382
  401WAT      O 1240   1.705   2.713   0.860
  401WAT     H1 1241   1.685   2.809   0.863
  401WAT     H2 1242   1.751   2.687   0.943
  402WAT      O 1243   2.826   2.252   0.912
  402WAT     H1 1244   2.864   2.342   0.912
  402WAT     H2 1245   2.774   2.239   0.830
  403WAT      O 1246   1.556   2.183   1.070
  403WAT     H1 1247   1.608   2.100   1.067
  403WAT     H2 1248   1.554   2.223   0.981
  404WAT      O 1249   1.839   2.199   0.934
  404WAT     H1 1250   1.888   2.144   0.999
  404WAT     H2 1251   1.899   2.266   0.896
  405WAT      O 1252   2.434   2.565   0.822
  405WAT     H1 1253   2.445   2.471   0.850
  405WAT     H2 1254   2.385   2.614   0.892
  406WAT      O 1255   2.008   2.207   0.502
  406WAT     H1 1256   2.032   2.289   0.455
  406WAT     H2 1257   1.989   2.136   0.437
  407WAT      O 1258   1.923   2.758   0.420
  407WAT     H1 1259   1.889   2.849   0.415
  407WAT     H2 1260   1.882   2.712   0.496
  408WAT      O 1261   1.761   3.128   0.275
  408WAT     H1 1262   1.690   3.189   0.301
  408WAT     H2 1263   1.810   3.098   0.355
  409WAT      O 1264   1.567   1.978   0.392
  409WAT     H1 1265   1.640   1.990   0.327
  409WAT     H2 1266   1.514   2.060   0.398
  410WAT      O 1267   2.064   3.247   1.328
  410WAT     H1 1268   1.995   3.255   1.397
  410WAT     H2 1269   2.037   3.297   1.248
  411WAT      O 1270   2.669   2.568   0.688
  411WAT     H1 1271   2.579   2.574   0.727
  411WAT     H2 1272   2.731   2.532   0.755
  412WAT      O 1273   2.378   2.403   0.447
  412WAT     H1 1274   2.470   2.432   0.427
  412WAT     H2 1275   2.332   2.474   0.496
  413WAT      O 1276   2.451   3.242   0.759
  413WAT     H1 1277   2.543   3.276   0.766
  413WAT     H2 1278   2.415   3.229   0.849
  414WAT      O 1279   2.735   2.812   0.312
  414WAT     H1 1280   2.753   2.721   0.282
  414WAT     H2 1281   2.645   2.817   0.351
  415WAT      O 1282   1.269   3.177   1.024
  415WAT     H1 1283   1.303   3.157   1.113
  415WAT     H2 1284   1.252   3.273   1.015
  416WAT      O 1285   1.607   2.336   0.783
  416WAT     H1 1286   1.603   2.346   0.686
  416WAT     H2 1287   1.696   2.305   0.809
  417WAT      O 1288   1.286   2.875   0.441
  417WAT     H1 1289   1.267   2.948   0.503
  417WAT     H2 1290   1.380   2.848   0.449
  418WAT      O 1291   1.996   3.024   1.215
  418WAT     H1 1292   1.938   3.046   1.139
  418WAT     H2 1293   2.022   3.107   1.261
  419WAT      O 1294   1.180   2.629   0.458
  419WAT     H1 1295   1.215   2.718   0.435
  419WAT     H2 1296   1.198   2.611   0.552
  420WAT      O 1297   2.403   3.182   1.032
  420WAT     H1 1298   2.353   3.200   1.115
  420WAT     H2 1299   2.499   3.193   1.049
  421WAT      O 1300   2.099   2.333   1.207
  421WAT     H1 1301   2.132   2.419   1.175
  421WAT     H2 1302   2.077   2.340   1.303
  422WAT      O 1303   2.441   2.827   0.666
  422WAT     H1 1304   2.528   2.845   0.709
  422WAT     H2 1305   2.394   2.758   0.718
  423WAT      O 1306   2.880   2.537   0.896
  423WAT     H1 1307   2.955   2.537   0.833
  423WAT     H2 1308   2.849   2.629   0.911
  424WAT      O 1309   1.205   2.331   0.445
  424WAT     H1 1310   1.157   2.308   0.527
  424WAT     H2 1311   1.221   2.428   0.442
  425WAT      O 1312   1.325   2.318   0.785
  425WAT     H1 1313   1.420   2.295   0.775
  425WAT     H2 1314   1.270   2.240   0.763
  426WAT      O 1315   2.966   1.848   0.324
  426WAT     H1 1316   2.958   1.931   0.273
  426WAT     H2 1317   2.881   1.800   0.323
  427WAT      O 1318   2.643   2.482   0.415
  427WAT     H1 1319   2.669   2.521   0.501
  427WAT     H2 1320   2.722   2.441   0.374
  428WAT      O 1321   2.319   3.155   1.286
  428WAT     H1 1322   2.228   3.184   1.309
  428WAT     H2 1323   2.359   3.109   1.363
  429WAT      O 1324   1.640   2.977   0.873
  429WAT     H1 1325   1.565   3.023   0.830
  429WAT     H2 1326   1.701   3.044   0.911
  430WAT      O 1327   2.837   1.972   0.655
  430WAT     H1 1328   2.881   1.921   0.725
  430WAT     H2 1329   2.844   1.924   0.570
  431WAT      O 1330   1.958   1.826   0.979
  431WAT     H1 1331   1.985   1.909   1.024
  431WAT     H2 1332   1.982   1.831   0.884
  432WAT      O 1333   1.704   2.667   0.598
  432WAT     H1 1334   1.683   2.574   0.577
  432WAT     H2 1335   1.707   2.679   0.695
  433WAT      O 1336   2.014   2.920   0.722
  433WAT     H1 1337   2.105   2.955   0.731
  433WAT     H2 1338   2.018   2.822   0.717
  434WAT      O 1339   2.909   2.445   1.186
  434WAT     H1 1340   2.962   2.525   1.208
  434WAT     H2 1341   2.837   2.469   1.125
  435WAT      O 1342   1.405   3.066   0.800
  435WAT     H1 1343   1.366   3.082   0.889
  435WAT     H2 1344   1.339   3.088   0.732
  436WAT      O 1345   2.097   2.655   0.666
  436WAT     H1 1346   2.118   2.648   0.571
  436WAT     H2 1347   2.175   2.631   0.719
  437WAT      O 1348   1.244   2.575   0.724
  437WAT     H1 1349   1.256   2.478   0.737
  437WAT     H2 1350   1.319   2.622   0.765
  438WAT      O 1351   1.843   3.083   0.516
  438WAT     H1 1352   1.898   3.049   0.589
  438WAT     H2 1353   1.753   3.102   0.548
  439WAT      O 1354   2.858   2.330   1.419
  439WAT     H1 1355   2.861   2.388   1.340
  439WAT     H2 1356   2.782   2.356   1.475
  440WAT      O 1357   1.334   1.906   0.950
  440WAT     H1 1358   1.286   1.963   0.886
  440WAT     H2 1359   1.311   1.934   1.041
  441WAT      O 1360   2.732   2.830   0.687
  441WAT     H1 1361   2.769   2.849   0.776
  441WAT     H2 1362   2.723   2.733   0.676
  442WAT      O 1363   2.421   1.950   0.411
  442WAT     H1 1364   2.418   1.921   0.318
  442WAT     H2 1365   2.470   1.884   0.464
  443WAT      O 1366   2.901   2.347   0.640
  443WAT     H1 1367   2.826   2.284   0.652
  443WAT     H2 1368   2.866   2.438   0.632
  444WAT      O 1369   2.943   3.302   0.296
  444WAT     H1 1370   2.975   3.213   0.271
  444WAT     H2 1371   3.004   3.341   0.362
  445WAT      O 1372   2.188   2.626   0.398
  445WAT     H1 1373   2.108   2.671   0.364
  445WAT     H2 1374   2.260   2.631   0.331
  446WAT      O 1375   1.677   1.878   0.615
  446WAT     H1 1376   1.767   1.907   0.641
  446WAT     H2 1377   1.653   1.921   0.531
  447WAT      O 1378   1.626   2.412   0.515
  447WAT     H1 1379   1.575   2.333   0.490
  447WAT     H2 1380   1.686   2.437   0.442
  448WAT      O 1381   2.046   1.993   0.341
  448WAT     H1 1382   2.100   2.043   0.276
  448WAT     H2 1383   2.093   1.911   0.366
  449WAT      O 1384   1.862   2.559   1.041
  449WAT     H1 1385   1.793   2.554   1.110
  449WAT     H2 1386   1.950   2.564   1.083
  450WAT      O 1387   1.405   2.537   1.033
  450WAT     H1 1388   1.447   2.549   0.945
  450WAT     H2 1389   1.332   2.472   1.026
  451WAT      O 1390   1.301   1.924   0.508
  451WAT     H1 1391   1.240   1.904   0.434
  451WAT     H2 1392   1.394   1.914   0.477
  452WAT      O 1393   2.794   2.809   0.952
  452WAT     H1 1394   2.861   2.851   1.010
  452WAT     H2 1395   2.709   2.800   1.001
  453WAT      O 1396   1.241   1.526   2.334
  453WAT     H1 1397   1.280   1.589   2.270
  453WAT     H2 1398   1.308   1.503   2.402
  454WAT      O 1399   1.824   0.612   2.176
  454WAT     H1 1400   1.912   0.570   2.171
  454WAT     H2 1401   1.832   0.708   2.160
  455WAT      O 1402   2.463   0.987   2.249
  455WAT     H1 1403   2.489   1.073   2.210
  455WAT     H2 1404   2.471   0.991   2.346
  456WAT      O 1405   1.625   0.369   1.766
  456WAT     H1 1406   1.567   0.441   1.735
  456WAT     H2 1407   1.584   0.282   1.743
  457WAT      O 1408   2.484   1.603   2.097
  457WAT     H1 1409   2.393   1.568   2.095
  457WAT     H2 1410   2.544   1.536   2.134
  458WAT      O 1411   2.090   0.488   2.166
  458WAT     H1 1412   2.138   0.418   2.117
  458WAT     H2 1413   2.155   0.553   2.201
  459WAT      O 1414   2.046   1.667   2.056
  459WAT     H1 1415   2.096   1.653   2.138
  459WAT     H2 1416   2.011   1.581   2.024
  460WAT      O 1417   1.240   1.143   1.495
  460WAT     H1 1418   1.240   1.064   1.552
  460WAT     H2 1419   1.213   1.221   1.547
  461WAT      O 1420   1.929   1.422   1.971
  461WAT     H1 1421   1.884   1.428   1.884
  461WAT     H2 1422   1.885   1.354   2.026
  462WAT      O 1423   2.096   1.244   2.277
  462WAT     H1 1424   2.140   1.196   2.351
  462WAT     H2 1425   2.007   1.273   2.305
  463WAT      O 1426   1.796   0.247   1.553
  463WAT     H1 1427   1.706   0.275   1.580
  463WAT     H2 1428   1.835   0.192   1.625
  464WAT      O 1429   1.900   0.178   2.549
  464WAT     H1 1430   1.937   0.234   2.478
  464WAT     H2 1431   1.884   0.233   2.629
  465WAT      O 1432   1.219   1.222   2.465
  465WAT     H1 1433   1.208   1.310   2.424
  465WAT     H2 1434   1.131   1.188   2.492
  466WAT      O 1435   2.673   1.124   1.943
  466WAT     H1 1436   2.678   1.063   2.019
  466WAT     H2 1437   2.677   1.217   1.975
  467WAT      O 1438   1.769   0.851   1.870
  467WAT     H1 1439   1.817   0.931   1.898
  467WAT     H2 1440   1.832   0.777   1.858
  468WAT      O 1441   1.328   0.720   1.870
  468WAT     H1 1442   1.398   0.739   1.935
  468WAT     H2 1443   1.244   0.701   1.916
  469WAT      O 1444   1.446   1.467   2.525
  469WAT     H1 1445   1.534   1.509   2.521
  469WAT     H2 1446   1.435   1.420   2.609
  470WAT      O 1447   2.508   1.254   2.196
  470WAT     H1 1448   2.584   1.309   2.168
  470WAT     H2 1449   2.428   1.309   2.199
  471WAT      O 1450   2.834   1.153   2.364
  471WAT     H1 1451   2.864   1.119   2.277
  471WAT     H2 1452   2.786   1.082   2.412
  472WAT      O 1453   2.378   0.810   2.049
  472WAT     H1 1454   2.418   0.881   2.102
  472WAT     H2 1455   2.427   0.799   1.965
  473WAT      O 1456   2.413   1.163   1.838
  473WAT     H1 1457   2.370   1.223   1.903
  473WAT     H2 1458   2.508   1.156   1.858
  474WAT      O 1459   1.153   1.320   1.681
  474WAT     H1 1460   1.121   1.408   1.654
  474WAT     H2 1461   1.226   1.330   1.745
  475WAT      O 1462   1.437   0.886   2.651
  475WAT     H1 1463   1.451   0.982   2.666
  475WAT     H2 1464   1.523   0.839   2.659
  476WAT      O 1465   2.094   0.812   1.980
  476WAT     H1 1466   2.072   0.898   2.020
  476WAT     H2 1467   2.189   0.793   1.993
  477WAT      O 1468   2.496   0.753   1.818
  477WAT     H1 1469   2.573   0.786   1.767
  477WAT     H2 1470   2.414   0.774   1.769
  478WAT      O 1471   1.453   0.543   1.671
  478WAT     H1 1472   1.402   0.527   1.589
  478WAT     H2 1473   1.400   0.600   1.731
  479WAT      O 1474   1.826   1.095   1.628
  479WAT     H1 1475   1.866   1.019   1.581
  479WAT     H2 1476   1.732   1.077   1.646
  480WAT      O 1477   1.536   1.411   2.180
  480WAT     H1 1478   1.569   1.503   2.182
  480WAT     H2 1479   1.509   1.388   2.089
  481WAT      O 1480   2.227   0.537   1.477
  481WAT     H1 1481   2.272   0.623   1.464
  481WAT     H2 1482   2.133   0.552   1.500
  482WAT      O 1483   2.678   0.237   1.983
  482WAT     H1 1484   2.764   0.212   2.025
  482WAT     H2 1485   2.687   0.230   1.886
  483WAT      O 1486   2.278   1.174   2.487
  483WAT     H1 1487   2.324   1.088   2.495
  483WAT     H2 1488   2.331   1.244   2.529
  484WAT      O 1489   1.648   0.762   1.595
  484WAT     H1 1490   1.679   0.815   1.671
  484WAT     H2 1491   1.576   0.702   1.623
  485WAT      O 1492   2.257   0.930   1.758
  485WAT     H1 1493   2.299   1.017   1.770
  485WAT     H2 1494   2.190   0.916   1.827
  486WAT      O 1495   2.971   0.702   2.036
  486WAT     H1 1496   2.986   0.739   2.126
  486WAT     H2 1497   2.950   0.607   2.044
  487WAT      O 1498   2.183   1.391   1.922
  487WAT     H1 1499   2.089   1.382   1.946
  487WAT     H2 1500   2.191   1.403   1.825
  488WAT      O 1501   2.684   1.392   1.986
  488WAT     H1 1502   2.643   1.467   1.940
  488WAT     H2 1503   2.775   1.415   2.014
  489WAT      O 1504   1.576   1.251   2.400
  489WAT     H1 1505   1.505   1.270   2.465
  489WAT     H2 1506   1.557   1.297   2.316
  490WAT      O 1507   2.464   0.348   2.091
  490WAT     H1 1508   2.448   0.376   2.184
  490WAT     H2 1509   2.553   0.310   2.083
  491WAT      O 1510   2.533   0.790   1.473
  491WAT     H1 1511   2.440   0.800   1.505
  491WAT     H2 1512   2.540   0.711   1.417
  492WAT      O 1513   2.737   1.412   2.616
  492WAT     H1 1514   2.787   1.343   2.664
  492WAT     H2 1515   2.776   1.500   2.635
  493WAT      O 1516   1.824   1.581   2.357
  493WAT     H1 1517   1.845   1.675   2.373
  493WAT     H2 1518   1.762   1.573   2.282
  494WAT      O 1519   2.391   0.298   2.449
  494WAT     H1 1520   2.372   0.361   2.377
  494WAT     H2 1521   2.380   0.206   2.416
  495WAT      O 1522   1.462   0.351   2.248
  495WAT     H1 1523   1.379   0.395   2.276
  495WAT     H2 1524   1.501   0.400   2.173
  496WAT      O 1525   2.160   0.482   1.753
  496WAT     H1 1526   2.168   0.443   1.663
  496WAT     H2 1527   2.244   0.470   1.801
  497WAT      O 1528   1.561   0.926   2.267
  497WAT     H1 1529   1.594   1.018   2.273
  497WAT     H2 1530   1.608   0.870   2.332
  498WAT      O 1531   1.247   0.452   2.032
  498WAT     H1 1532   1.341   0.478   2.024
  498WAT     H2 1533   1.227   0.431   2.126
  499WAT      O 1534   2.671   0.314   2.533
  499WAT     H1 1535   2.583   0.303   2.492
  499WAT     H2 1536   2.714   0.226   2.543
  500WAT      O 1537   2.241   1.463   2.179
  500WAT     H1 1538   2.212   1.452   2.087
  500WAT     H2 1539   2.196   1.397   2.236
  501WAT      O 1540   2.948   0.943   1.904
  501WAT     H1 1541   2.957   0.857   1.951
  501WAT     H2 1542   2.854   0.969   1.903
  502WAT      O 1543   2.776   0.492   2.029
  502WAT     H1 1544   2.730   0.410   1.999
  502WAT     H2 1545   2.767   0.561   1.960
  503WAT      O 1546   1.740   1.456   2.600
  503WAT     H1 1547   1.823   1.438   2.649
  503WAT     H2 1548   1.762   1.489   2.510
  504WAT      O 1549   2.807   1.165   1.695
  504WAT     H1 1550   2.765   1.149   1.782
  504WAT     H2 1551   2.879   1.231   1.705
  505WAT      O 1552   2.008   0.332   2.357
  505WAT     H1 1553   2.032   0.414   2.310
  505WAT     H2 1554   1.989   0.261   2.291
  506WAT      O 1555   1.923   0.883   2.274
  506WAT     H1 1556   1.889   0.974   2.269
  506WAT     H2 1557   1.882   0.837   2.350
  507WAT      O 1558   1.761   1.253   2.129
  507WAT     H1 1559   1.690   1.314   2.156
  507WAT     H2 1560   1.810   1.223   2.209
  508WAT      O 1561   1.924   0.841   1.540
  508WAT     H1 1562   1.839   0.812   1.502
  508WAT     H2 1563   1.964   0.767   1.590
  509WAT      O 1564   1.216   0.509   1.547
  509WAT     H1 1565   1.185   0.492   1.638
  509WAT     H2 1566   1.149   0.475   1.483
  510WAT      O 1567   1.147   1.758   2.538
  510WAT     H1 1568   1.187   1.800   2.459
  510WAT     H2 1569   1.185   1.668   2.550
  511WAT      O 1570   2.726   1.482   2.308
  511WAT     H1 1571   2.809   1.451   2.265
  511WAT     H2 1572   2.721   1.444   2.398
  512WAT      O 1573   1.540   1.113   1.647
  512WAT     H1 1574   1.509   1.140   1.559
  512WAT     H2 1575   1.470   1.063   1.693
  513WAT      O 1576   2.669   0.693   2.543
  513WAT     H1 1577   2.579   0.699   2.581
  513WAT     H2 1578   2.731   0.657   2.610
  514WAT      O 1579   2.378   0.528   2.301
  514WAT     H1 1580   2.470   0.557   2.281
  514WAT     H2 1581   2.332   0.599   2.350
  515WAT      O 1582   2.268   0.822   1.518
  515WAT     H1 1583   2.262   0.887   1.591
  515WAT     H2 1584   2.222   0.857   1.439
  516WAT      O 1585   2.451   1.367   2.613
  516WAT     H1 1586   2.543   1.401   2.620
  516WAT     H2 1587   2.415   1.354   2.703
  517WAT      O 1588   2.735   0.937   2.167
  517WAT     H1 1589   2.753   0.846   2.136
  517WAT     H2 1590   2.645   0.942   2.205
  518WAT      O 1591   1.607   0.461   2.637
  518WAT     H1 1592   1.603   0.471   2.540
  518WAT     H2 1593   1.696   0.430   2.663
  519WAT      O 1594   1.297   1.672   2.098
  519WAT     H1 1595   1.353   1.712   2.029
  519WAT     H2 1596   1.216   1.726   2.110
  520WAT      O 1597   1.547   0.759   2.035
  520WAT     H1 1598   1.542   0.825   2.107
  520WAT     H2 1599   1.625   0.777   1.979
  521WAT      O 1600   2.638   1.589   1.812
  521WAT     H1 1601   2.665   1.537   1.733
  521WAT     H2 1602   2.548   1.625   1.798
  522WAT      O 1603   1.286   1.000   2.295
  522WAT     H1 1604   1.267   1.073   2.358
  522WAT     H2 1605   1.380   0.973   2.303
  523WAT      O 1606   2.760   0.606   1.768
  523WAT     H1 1607   2.755   0.702   1.752
  523WAT     H2 1608   2.713   0.559   1.696
  524WAT      O 1609   1.180   0.754   2.312
  524WAT     H1 1610   1.215   0.843   2.289
  524WAT     H2 1611   1.198   0.736   2.406
  525WAT      O 1612   1.270   0.967   1.681
  525WAT     H1 1613   1.294   0.872   1.688
  525WAT     H2 1614   1.204   0.989   1.750
  526WAT      O 1615   2.520   1.722   2.433
  526WAT     H1 1616   2.458   1.650   2.412
  526WAT     H2 1617   2.611   1.686   2.441
  527WAT      O 1618   2.441   0.952   2.521
  527WAT     H1 1619   2.528   0.970   2.563
  527WAT     H2 1620   2.394   0.883   2.572
  528WAT      O 1621   1.928   0.629   1.838
  528WAT     H1 1622   1.983   0.683   1.899
  528WAT     H2 1623   1.982   0.556   1.801
  529WAT      O 1624   1.341   1.430   1.886
  529WAT     H1 1625   1.272   1.419   1.954
  529WAT     H2 1626   1.338   1.521   1.850
  530WAT      O 1627   1.205   0.456   2.299
  530WAT     H1 1628   1.157   0.433   2.381
  530WAT     H2 1629   1.221   0.553   2.297
  531WAT      O 1630   2.192   1.759   2.298
  531WAT     H1 1631   2.265   1.819   2.322
  531WAT     H2 1632   2.216   1.667   2.324
  532WAT      O 1633   1.325   0.443   2.639
  532WAT     H1 1634   1.420   0.420   2.629
  532WAT     H2 1635   1.270   0.365   2.618
  533WAT      O 1636   2.643   0.607   2.270
  533WAT     H1 1637   2.669   0.646   2.355
  533WAT     H2 1638   2.722   0.566   2.228
  534WAT      O 1639   2.080   1.070   2.075
  534WAT     H1 1640   2.008   1.100   2.017
  534WAT     H2 1641   2.085   1.128   2.154
  535WAT      O 1642   1.704   0.792   2.452
  535WAT     H1 1643   1.683   0.699   2.431
  535WAT     H2 1644   1.707   0.804   2.549
  536WAT      O 1645   1.560   0.476   2.035
  536WAT     H1 1646   1.587   0.444   1.947
  536WAT     H2 1647   1.589   0.569   2.047
  537WAT      O 1648   2.014   1.045   2.576
  537WAT     H1 1649   2.105   1.080   2.585
  537WAT     H2 1650   2.018   0.947   2.571
  538WAT      O 1651   1.721   0.593   1.419
  538WAT     H1 1652   1.644   0.535   1.404
  538WAT     H2 1653   1.704   0.649   1.498
  539WAT      O 1654   2.097   0.780   2.520
  539WAT     H1 1655   2.118   0.773   2.425
  539WAT     H2 1656   2.175   0.756   2.573
  540WAT      O 1657   1.244   0.700   2.578
  540WAT     H1 1658   1.256   0.603   2.591
  540WAT     H2 1659   1.319   0.747   2.619
  541WAT      O 1660   1.843   1.208   2.370
  541WAT     H1 1661   1.898   1.174   2.443
  541WAT     H2 1662   1.753   1.227   2.403
  542WAT      O 1663   1.856   1.092   1.924
  542WAT     H1 1664   1.795   1.148   1.976
  542WAT     H2 1665   1.836   1.102   1.829
  543WAT      O 1666   2.924   1.593   1.900
  543WAT     H1 1667   2.829   1.613   1.903
  543WAT     H2 1668   2.962   1.600   1.990
  544WAT      O 1669   2.732   0.955   2.541
  544WAT     H1 1670   2.769   0.974   2.630
  544WAT     H2 1671   2.723   0.858   2.530
  545WAT      O 1672   2.215   0.254   2.046
  545WAT     H1 1673   2.309   0.270   2.068
  545WAT     H2 1674   2.209   0.224   1.953
  546WAT      O 1675   1.624   1.683   2.165
  546WAT     H1 1676   1.604   1.757   2.226
  546WAT     H2 1677   1.652   1.719   2.078
  547WAT      O 1678   1.958   0.492   1.474
  547WAT     H1 1679   1.952   0.395   1.488
  547WAT     H2 1680   1.869   0.527   1.454
  548WAT      O 1681   2.901   0.472   2.494
  548WAT     H1 1682   2.826   0.409   2.506
  548WAT     H2 1683   2.866   0.563   2.486
  549WAT      O 1684   2.943   1.427   2.151
  549WAT     H1 1685   2.975   1.338   2.125
  549WAT     H2 1686   3.004   1.466   2.217
  550WAT      O 1687   2.313   1.542   2.476
  550WAT     H1 1688   2.362   1.474   2.526
  550WAT     H2 1689   2.217   1.524   2.482
  551WAT      O 1690   2.704   0.873   1.672
  551WAT     H1 1691   2.664   0.851   1.586
  551WAT     H2 1692   2.755   0.956   1.665
  552WAT      O 1693   2.188   0.751   2.253
  552WAT     H1 1694   2.108   0.796   2.218
  552WAT     H2 1695   2.260   0.756   2.186
  553WAT      O 1696   2.040   1.536   2.511
  553WAT     H1 1697   1.964   1.511   2.454
  553WAT     H2 1698   2.027   1.627   2.544
  554WAT      O 1699   2.417   0.492   1.865
  554WAT     H1 1700   2.433   0.588   1.879
  554WAT     H2 1701   2.441   0.442   1.945
  555WAT      O 1702   2.617   0.451   1.565
  555WAT     H1 1703   2.548   0.429   1.499
  555WAT     H2 1704   2.638   0.372   1.618
  556WAT      O 1705   2.966   0.452   1.789
  556WAT     H1 1706   2.902   0.526   1.795
  556WAT     H2 1707   3.025   0.453   1.867
  557WAT      O 1708   2.726   1.715   2.186
  557WAT     H1 1709   2.649   1.739   2.131
  557WAT     H2 1710   2.711   1.628   2.227
  558WAT      O 1711   3.019   1.169   2.079
  558WAT     H1 1712   2.990   1.106   2.010
  558WAT     H2 1713   3.079   1.124   2.141
  559WAT      O 1714   1.626   0.537   2.370
  559WAT     H1 1715   1.575   0.458   2.344
  559WAT     H2 1716   1.686   0.562   2.296
  560WAT      O 1717   1.869   0.345   1.909
  560WAT     H1 1718   1.900   0.433   1.936
  560WAT     H2 1719   1.793   0.354   1.848
  561WAT      O 1720   1.933   0.550   0.807
  561WAT     H1 1721   1.981   0.618   0.755
  561WAT     H2 1722   1.888   0.593   0.883
  562WAT      O 1723   1.241   1.526   0.480
  562WAT     H1 1724   1.280   1.589   0.415
  562WAT     H2 1725   1.308   1.503   0.548
  563WAT      O 1726   1.824   0.612   0.322
  563WAT     H1 1727   1.912   0.570   0.317
  563WAT     H2 1728   1.832   0.708   0.305
  564WAT      O 1729   2.463   0.987   0.394
  564WAT     H1 1730   2.489   1.073   0.356
  564WAT     H2 1731   2.471   0.991   0.492
  565WAT      O 1732   2.484   1.603   0.243
  565WAT     H1 1733   2.393   1.568   0.240
  565WAT     H2 1734   2.544   1.536   0.280
  566WAT      O 1735   1.197   1.566   0.989
  566WAT     H1 1736   1.230   1.637   1.047
  566WAT     H2 1737   1.103   1.583   0.966
  567WAT      O 1738   1.502   0.424   1.328
  567WAT     H1 1739   1.520   0.393   1.237
  567WAT     H2 1740   1.421   0.382   1.361
  568WAT      O 1741   2.090   0.488   0.312
  568WAT     H1 1742   2.138   0.418   0.263
  568WAT     H2 1743   2.155   0.553   0.347
  569WAT      O 1744   2.046   1.667   0.202
  569WAT     H1 1745   2.096   1.653   0.284
  569WAT     H2 1746   2.011   1.581   0.170
  570WAT      O 1747   2.096   1.244   0.423
  570WAT     H1 1748   2.140   1.196   0.496
  570WAT     H2 1749   2.007   1.273   0.451
  571WAT      O 1750   1.900   0.178   0.695
  571WAT     H1 1751   1.937   0.234   0.624
  571WAT     H2 1752   1.884   0.233   0.774
  572WAT      O 1753   2.000   1.391   0.876
  572WAT     H1 1754   2.009   1.455   0.950
  572WAT     H2 1755   2.052   1.421   0.799
  573WAT      O 1756   1.219   1.222   0.611
  573WAT     H1 1757   1.208   1.310   0.569
  573WAT     H2 1758   1.131   1.188   0.638
  574WAT      O 1759   1.642   0.696   1.180
  574WAT     H1 1760   1.552   0.663   1.160
  574WAT     H2 1761   1.674   0.655   1.263
  575WAT      O 1762   2.562   0.873   1.102
  575WAT     H1 1763   2.569   0.948   1.165
  575WAT     H2 1764   2.557   0.789   1.152
  576WAT      O 1765   2.909   1.219   0.866
  576WAT     H1 1766   3.004   1.243   0.858
  576WAT     H2 1767   2.901   1.141   0.925
  577WAT      O 1768   1.446   1.467   0.670
  577WAT     H1 1769   1.534   1.509   0.667
  577WAT     H2 1770   1.435   1.420   0.755
  578WAT      O 1771   2.508   1.254   0.341
  578WAT     H1 1772   2.584   1.309   0.314
  578WAT     H2 1773   2.428   1.309   0.345
  579WAT      O 1774   1.395   1.285   1.295
  579WAT     H1 1775   1.489   1.298   1.318
  579WAT     H2 1776   1.351   1.236   1.368
  580WAT      O 1777   2.834   1.153   0.510
  580WAT     H1 1778   2.864   1.119   0.423
  580WAT     H2 1779   2.786   1.082   0.558
  581WAT      O 1780   2.938   0.196   1.069
  581WAT     H1 1781   2.903   0.242   1.148
  581WAT     H2 1782   2.916   0.247   0.989
  582WAT      O 1783   1.908   1.157   0.951
  582WAT     H1 1784   1.924   1.252   0.936
  582WAT     H2 1785   1.930   1.107   0.870
  583WAT      O 1786   1.437   0.886   0.796
  583WAT     H1 1787   1.451   0.982   0.812
  583WAT     H2 1788   1.523   0.839   0.804
  584WAT      O 1789   2.598   0.415   1.058
  584WAT     H1 1790   2.692   0.403   1.032
  584WAT     H2 1791   2.543   0.419   0.977
  585WAT      O 1792   2.484   0.644   1.233
  585WAT     H1 1793   2.387   0.658   1.233
  585WAT     H2 1794   2.504   0.559   1.188
  586WAT      O 1795   1.130   1.061   1.089
  586WAT     H1 1796   1.212   1.007   1.094
  586WAT     H2 1797   1.153   1.154   1.072
  587WAT      O 1798   2.417   0.345   1.416
  587WAT     H1 1799   2.398   0.277   1.347
  587WAT     H2 1800   2.335   0.390   1.441
  588WAT      O 1801   2.890   0.939   1.332
  588WAT     H1 1802   2.945   1.012   1.297
  588WAT     H2 1803   2.947   0.868   1.367
  589WAT      O 1804   2.095   0.919   1.336
  589WAT     H1 1805   2.021   0.899   1.396
  589WAT     H2 1806   2.063   0.972   1.261
  590WAT      O 1807   2.170   0.717   1.176
  590WAT     H1 1808   2.155   0.794   1.234
  590WAT     H2 1809   2.214   0.746   1.094
  591WAT      O 1810   2.612   1.010   1.328
  591WAT     H1 1811   2.565   0.945   1.385
  591WAT     H2 1812   2.709   0.996   1.337
  592WAT      O 1813   2.005   1.559   1.091
  592WAT     H1 1814   2.017   1.642   1.041
  592WAT     H2 1815   1.912   1.550   1.118
  593WAT      O 1816   1.536   1.411   0.326
  593WAT     H1 1817   1.569   1.503   0.327
  593WAT     H2 1818   1.509   1.388   0.235
  594WAT      O 1819   2.266   0.279   1.030
  594WAT     H1 1820   2.311   0.217   1.090
  594WAT     H2 1821   2.202   0.334   1.081
  595WAT      O 1822   2.278   1.174   0.632
  595WAT     H1 1823   2.324   1.088   0.640
  595WAT     H2 1824   2.331   1.244   0.675
  596WAT      O 1825   2.971   0.702   0.182
  596WAT     H1 1826   2.986   0.739   0.272
  596WAT     H2 1827   2.950   0.607   0.190
  597WAT      O 1828   1.576   1.251   0.546
  597WAT     H1 1829   1.505   1.270   0.610
  597WAT     H2 1830   1.557   1.297   0.462
  598WAT      O 1831   2.464   0.348   0.237
  598WAT     H1 1832   2.448   0.376   0.330
  598WAT     H2 1833   2.553   0.310   0.229
  599WAT      O 1834   2.222   1.111   0.981
  599WAT     H1 1835   2.139   1.112   1.032
  599WAT     H2 1836   2.274   1.192   1.000
  600WAT      O 1837   2.737   1.412   0.762
  600WAT     H1 1838   2.787   1.343   0.810
  600WAT     H2 1839   2.776   1.500   0.781
  601WAT      O 1840   1.345   0.892   1.142
  601WAT     H1 1841   1.423   0.951   1.152
  601WAT     H2 1842   1.372   0.811   1.094
  602WAT      O 1843   2.413   0.417   0.851
  602WAT     H1 1844   2.339   0.374   0.899
  602WAT     H2 1845   2.430   0.370   0.767
  603WAT      O 1846   2.314   0.866   1.000
  603WAT     H1 1847   2.407   0.868   1.031
  603WAT     H2 1848   2.284   0.956   0.978
  604WAT      O 1849   1.824   1.581   0.503
  604WAT     H1 1850   1.845   1.675   0.518
  604WAT     H2 1851   1.762   1.573   0.428
  605WAT      O 1852   2.391   0.298   0.595
  605WAT     H1 1853   2.372   0.361   0.523
  605WAT     H2 1854   2.380   0.206   0.562
  606WAT      O 1855   1.205   0.728   1.339
  606WAT     H1 1856   1.244   0.684   1.417
  606WAT     H2 1857   1.277   0.770   1.287
  607WAT      O 1858   1.462   0.351   0.394
  607WAT     H1 1859   1.379   0.395   0.422
  607WAT     H2 1860   1.501   0.400   0.319
  608WAT      O 1861   1.582   1.485   0.961
  608WAT     H1 1862   1.557   1.579   0.946
  608WAT     H2 1863   1.646   1.457   0.892
  609WAT      O 1864   1.561   0.926   0.413
  609WAT     H1 1865   1.594   1.018   0.419
  609WAT     H2 1866   1.608   0.870   0.478
  610WAT      O 1867   1.609   1.021   1.209
  610WAT     H1 1868   1.642   1.051   1.122
  610WAT     H2 1869   1.648   0.935   1.232
  611WAT      O 1870   1.247   0.452   0.178
  611WAT     H1 1871   1.341   0.478   0.170
  611WAT     H2 1872   1.227   0.431   0.272
  612WAT      O 1873   2.671   0.314   0.679
  612WAT     H1 1874   2.583   0.303   0.638
  612WAT     H2 1875   2.714   0.226   0.688
  613WAT      O 1876   2.241   1.463   0.325
  613WAT     H1 1877   2.212   1.452   0.232
  613WAT     H2 1878   2.196   1.397   0.382
  614WAT      O 1879   1.705   0.838   0.860
  614WAT     H1 1880   1.685   0.934   0.863
  614WAT     H2 1881   1.751   0.812   0.943
  615WAT      O 1882   2.826   0.377   0.912
  615WAT     H1 1883   2.864   0.467   0.912
  615WAT     H2 1884   2.774   0.364   0.830
  616WAT      O 1885   1.556   0.308   1.070
  616WAT     H1 1886   1.608   0.225   1.067
  616WAT     H2 1887   1.554   0.348   0.981
  617WAT      O 1888   1.839   0.324   0.934
  617WAT     H1 1889   1.888   0.269   0.999
  617WAT     H2 1890   1.899   0.391   0.896
  618WAT      O 1891   2.434   0.690   0.822
  618WAT     H1 1892   2.445   0.596   0.850
  618WAT     H2 1893   2.385   0.739   0.892
  619WAT      O 1894   1.740   1.456   0.745
  619WAT     H1 1895   1.823   1.438   0.795
  619WAT     H2 1896   1.762   1.489   0.656
  620WAT      O 1897   2.008   0.332   0.502
  620WAT     H1 1898   2.032   0.414   0.455
  620WAT     H2 1899   1.989   0.261   0.437
  621WAT      O 1900   1.923   0.883   0.420
  621WAT     H1 1901   1.889   0.974   0.415
  621WAT     H2 1902   1.882   0.837   0.496
  622WAT      O 1903   1.761   1.253   0.275
  622WAT     H1 1904   1.690   1.314   0.301
  622WAT     H2 1905   1.810   1.223   0.355
  623WAT      O 1906   1.147   1.758   0.683
  623WAT     H1 1907   1.187   1.800   0.605
  623WAT     H2 1908   1.185   1.668   0.695
  624WAT      O 1909   2.726   1.482   0.454
  624WAT     H1 1910   2.809   1.451   0.411
  624WAT     H2 1911   2.721   1.444   0.544
  625WAT      O 1912   2.669   0.693   0.688
  625WAT     H1 1913   2.579   0.699   0.727
  625WAT     H2 1914   2.731   0.657   0.755
  626WAT      O 1915   2.378   0.528   0.447
  626WAT     H1 1916   2.470   0.557   0.427
  626WAT     H2 1917   2.332   0.599   0.496
  627WAT      O 1918   2.451   1.367   0.759
  627WAT     H1 1919   2.543   1.401   0.766
  627WAT     H2 1920   2.415   1.354   0.849
  628WAT      O 1921   2.735   0.937   0.312
  628WAT     H1 1922   2.753   0.846   0.282
  628WAT     H2 1923   2.645   0.942   0.351
  629WAT      O 1924   1.269   1.302   1.024
  629WAT     H1 1925   1.303   1.282   1.113
  629WAT     H2 1926   1.252   1.398   1.015
  630WAT      O 1927   1.607   0.461   0.783
  630WAT     H1 1928   1.603   0.471   0.686
  630WAT     H2 1929   1.696   0.430   0.809
  631WAT      O 1930   1.297   1.672   0.244
  631WAT     H1 1931   1.353   1.712   0.175
  631WAT     H2 1932   1.216   1.726   0.256
  632WAT      O 1933   1.286   1.000   0.441
  632WAT     H1 1934   1.267   1.073   0.503
  632WAT     H2 1935   1.380   0.973   0.449
  633WAT      O 1936   1.996   1.149   1.215
  633WAT     H1 1937   1.938   1.171   1.139
  633WAT     H2 1938   2.022   1.232   1.261
  634WAT      O 1939   1.180   0.754   0.458
  634WAT     H1 1940   1.215   0.843   0.435
  634WAT     H2 1941   1.198   0.736   0.552
  635WAT      O 1942   2.403   1.307   1.032
  635WAT     H1 1943   2.353   1.325   1.115
  635WAT     H2 1944   2.499   1.318   1.049
  636WAT      O 1945   2.099   0.458   1.207
  636WAT     H1 1946   2.132   0.544   1.175
  636WAT     H2 1947   2.077   0.465   1.303
  637WAT      O 1948   2.520   1.722   0.578
  637WAT     H1 1949   2.458   1.650   0.558
  637WAT     H2 1950   2.611   1.686   0.587
  638WAT      O 1951   2.441   0.952   0.666
  638WAT     H1 1952   2.528   0.970   0.709
  638WAT     H2 1953   2.394   0.883   0.718
  639WAT      O 1954   2.880   0.662   0.896
  639WAT     H1 1955   2.955   0.662   0.833
  639WAT     H2 1956   2.849   0.754   0.911
  640WAT      O 1957   1.205   0.456   0.445
  640WAT     H1 1958   1.157   0.433   0.527
  640WAT     H2 1959   1.221   0.553   0.442
  641WAT      O 1960   2.192   1.759   0.444
  641WAT     H1 1961   2.265   1.819   0.468
  641WAT     H2 1962   2.216   1.667   0.470
  642WAT      O 1963   1.320   0.197   1.178
  642WAT     H1 1964   1.237   0.215   1.130
  642WAT     H2 1965   1.395   0.240   1.130
  643WAT      O 1966   1.325   0.443   0.785
  643WAT     H1 1967   1.420   0.420   0.775
  643WAT     H2 1968   1.270   0.365   0.763
  644WAT      O 1969   2.643   0.607   0.415
  644WAT     H1 1970   2.669   0.646   0.501
  644WAT     H2 1971   2.722   0.566   0.374
  645WAT      O 1972   1.640   1.102   0.873
  645WAT     H1 1973   1.565   1.148   0.830
  645WAT     H2 1974   1.701   1.169   0.911
  646WAT      O 1975   1.704   0.792   0.598
  646WAT     H1 1976   1.683   0.699   0.577
  646WAT     H2 1977   1.707   0.804   0.695
  647WAT      O 1978   2.014   1.045   0.722
  647WAT     H1 1979   2.105   1.080   0.731
  647WAT     H2 1980   2.018   0.947   0.717
  648WAT      O 1981   2.909   0.570   1.186
  648WAT     H1 1982   2.962   0.650   1.208
  648WAT     H2 1983   2.837   0.594   1.125
  649WAT      O 1984   1.405   1.191   0.800
  649WAT     H1 1985   1.366   1.207   0.889
  649WAT     H2 1986   1.339   1.213   0.732
  650WAT      O 1987   2.097   0.780   0.666
  650WAT     H1 1988   2.118   0.773   0.571
  650WAT     H2 1989   2.175   0.756   0.719
  651WAT      O 1990   1.244   0.700   0.724
  651WAT     H1 1991   1.256   0.603   0.737
  651WAT     H2 1992   1.319   0.747   0.765
  652WAT      O 1993   1.843   1.208   0.516
  652WAT     H1 1994   1.898   1.174   0.589
  652WAT     H2 1995   1.753   1.227   0.548
  653WAT      O 1996   2.858   0.455   1.419
  653WAT     H1 1997   2.861   0.513   1.340
  653WAT     H2 1998   2.782   0.481   1.475
  654WAT      O 1999   2.843   1.657   0.854
  654WAT     H1 2000   2.899   1.707   0.790
  654WAT     H2 2001   2.768   1.714   0.882
  655WAT      O 2002   2.732   0.955   0.687
  655WAT     H1 2003   2.769   0.974   0.776
  655WAT     H2 2004   2.723   0.858   0.676
  656WAT      O 2005   1.624   1.683   0.311
  656WAT     H1 2006   1.604   1.757   0.372
  656WAT     H2 2007   1.652   1.719   0.224
  657WAT      O 2008   2.901   0.472   0.640
  657WAT     H1 2009   2.826   0.409   0.652
  657WAT     H2 2010   2.866   0.563   0.632
  658WAT      O 2011   2.943   1.427   0.296
  658WAT     H1 2012   2.975   1.338   0.271
  658WAT     H2 2013   3.004   1.466   0.362
  659WAT      O 2014   2.313   1.542   0.621
  659WAT     H1 2015   2.362   1.474   0.671
  659WAT     H2 2016   2.217   1.524   0.628
  660WAT      O 2017   2.188   0.751   0.398
  660WAT     H1 2018   2.108   0.796   0.364
  660WAT     H2 2019   2.260   0.756   0.331
  661WAT      O 2020   2.040   1.536   0.657
  661WAT     H1 2021   1.964   1.511   0.600
  661WAT     H2 2022   2.027   1.627   0.690
  662WAT      O 2023   2.726   1.715   0.332
  662WAT     H1 2024   2.649   1.739   0.276
  662WAT     H2 2025   2.711   1.628   0.373
  663WAT      O 2026   1.626   0.537   0.515
  663WAT     H1 2027   1.575   0.458   0.490
  663WAT     H2 2028   1.686   0.562   0.442
  664WAT      O 2029   1.862   0.684   1.041
  664WAT     H1 2030   1.793   0.679   1.110
  664WAT     H2 2031   1.950   0.689   1.083
  665WAT      O 2032   1.405   0.662   1.033
  665WAT     H1 2033   1.447   0.674   0.945
  665WAT     H2 2034   1.332   0.597   1.026
  666WAT      O 2035   2.794   0.934   0.952
  666WAT     H1 2036   2.861   0.976   1.010
  666WAT     H2 2037   2.709   0.925   1.001
  667WAT      O 2038   0.295   3.246   1.656
  667WAT     H1 2039   0.366   3.186   1.624
  667WAT     H2 2040   0.221   3.246   1.592
  668WAT      O 2041   0.595   2.862   2.249
  668WAT     H1 2042   0.621   2.948   2.210
  668WAT     H2 2043   0.603   2.866   2.346
  669WAT      O 2044   0.819   2.084   1.705
  669WAT     H1 2045   0.737   2.030   1.713
  669WAT     H2 2046   0.884   2.035   1.651
  670WAT      O 2047   0.222   2.363   2.166
  670WAT     H1 2048   0.270   2.293   2.117
  670WAT     H2 2049   0.287   2.428   2.201
  671WAT      O 2050   0.526   3.115   1.562
  671WAT     H1 2051   0.610   3.149   1.525
  671WAT     H2 2052   0.540   3.089   1.656
  672WAT      O 2053   0.331   2.015   1.461
  672WAT     H1 2054   0.375   2.019   1.548
  672WAT     H2 2055   0.270   1.939   1.459
  673WAT      O 2056   1.098   2.077   2.010
  673WAT     H1 2057   1.119   2.173   2.012
  673WAT     H2 2058   1.132   2.038   1.927
  674WAT      O 2059   0.805   2.999   1.943
  674WAT     H1 2060   0.810   2.938   2.019
  674WAT     H2 2061   0.809   3.092   1.975
  675WAT      O 2062   0.640   3.129   2.196
  675WAT     H1 2063   0.716   3.184   2.168
  675WAT     H2 2064   0.559   3.184   2.199
  676WAT      O 2065   0.965   3.028   2.364
  676WAT     H1 2066   0.996   2.994   2.277
  676WAT     H2 2067   0.918   2.957   2.412
  677WAT      O 2068   0.509   2.685   2.049
  677WAT     H1 2069   0.550   2.756   2.102
  677WAT     H2 2070   0.559   2.674   1.965
  678WAT      O 2071   0.320   1.848   1.916
  678WAT     H1 2072   0.270   1.778   1.962
  678WAT     H2 2073   0.258   1.908   1.870
  679WAT      O 2074   0.544   3.038   1.838
  679WAT     H1 2075   0.502   3.098   1.903
  679WAT     H2 2076   0.640   3.031   1.858
  680WAT      O 2077   0.226   2.687   1.980
  680WAT     H1 2078   0.204   2.773   2.020
  680WAT     H2 2079   0.321   2.668   1.993
  681WAT      O 2080   0.628   2.628   1.818
  681WAT     H1 2081   0.705   2.661   1.767
  681WAT     H2 2082   0.546   2.649   1.769
  682WAT      O 2083   0.359   2.412   1.477
  682WAT     H1 2084   0.404   2.498   1.464
  682WAT     H2 2085   0.265   2.427   1.500
  683WAT      O 2086   0.586   1.836   1.987
  683WAT     H1 2087   0.596   1.739   1.995
  683WAT     H2 2088   0.492   1.859   1.979
  684WAT      O 2089   0.810   2.112   1.983
  684WAT     H1 2090   0.895   2.087   2.025
  684WAT     H2 2091   0.818   2.105   1.886
  685WAT      O 2092   0.409   3.049   2.487
  685WAT     H1 2093   0.455   2.963   2.495
  685WAT     H2 2094   0.463   3.119   2.529
  686WAT      O 2095   0.389   2.805   1.758
  686WAT     H1 2096   0.431   2.892   1.770
  686WAT     H2 2097   0.322   2.791   1.827
  687WAT      O 2098   1.103   2.577   2.036
  687WAT     H1 2099   1.117   2.614   2.126
  687WAT     H2 2100   1.082   2.482   2.044
  688WAT      O 2101   0.315   3.266   1.922
  688WAT     H1 2102   0.220   3.257   1.946
  688WAT     H2 2103   0.323   3.278   1.825
  689WAT      O 2104   0.577   1.836   2.672
  689WAT     H1 2105   0.580   1.787   2.587
  689WAT     H2 2106   0.496   1.891   2.675
  690WAT      O 2107   0.595   2.223   2.091
  690WAT     H1 2108   0.580   2.251   2.184
  690WAT     H2 2109   0.685   2.185   2.083
  691WAT      O 2110   0.664   2.665   1.473
  691WAT     H1 2111   0.572   2.675   1.505
  691WAT     H2 2112   0.671   2.586   1.417
  692WAT      O 2113   0.523   2.173   2.449
  692WAT     H1 2114   0.504   2.236   2.377
  692WAT     H2 2115   0.512   2.081   2.416
  693WAT      O 2116   0.292   2.357   1.753
  693WAT     H1 2117   0.300   2.318   1.663
  693WAT     H2 2118   0.376   2.345   1.801
  694WAT      O 2119   0.787   3.117   1.497
  694WAT     H1 2120   0.838   3.068   1.565
  694WAT     H2 2121   0.756   3.054   1.428
  695WAT      O 2122   0.803   2.189   2.533
  695WAT     H1 2123   0.715   2.178   2.492
  695WAT     H2 2124   0.845   2.101   2.543
  696WAT      O 2125   0.373   3.338   2.179
  696WAT     H1 2126   0.344   3.327   2.087
  696WAT     H2 2127   0.328   3.272   2.236
  697WAT      O 2128   1.080   2.818   1.904
  697WAT     H1 2129   1.089   2.732   1.951
  697WAT     H2 2130   0.986   2.844   1.903
  698WAT      O 2131   0.907   2.367   2.029
  698WAT     H1 2132   0.862   2.285   1.999
  698WAT     H2 2133   0.899   2.436   1.960
  699WAT      O 2134   0.939   3.040   1.695
  699WAT     H1 2135   0.897   3.024   1.782
  699WAT     H2 2136   1.011   3.106   1.705
  700WAT      O 2137   0.624   1.896   1.739
  700WAT     H1 2138   0.614   1.807   1.698
  700WAT     H2 2139   0.619   1.887   1.836
  701WAT      O 2140   0.801   2.568   2.543
  701WAT     H1 2141   0.711   2.574   2.581
  701WAT     H2 2142   0.863   2.532   2.610
  702WAT      O 2143   0.510   2.403   2.301
  702WAT     H1 2144   0.602   2.432   2.281
  702WAT     H2 2145   0.464   2.474   2.350
  703WAT      O 2146   0.400   2.697   1.518
  703WAT     H1 2147   0.394   2.762   1.591
  703WAT     H2 2148   0.354   2.732   1.439
  704WAT      O 2149   0.583   3.242   2.613
  704WAT     H1 2150   0.675   3.276   2.620
  704WAT     H2 2151   0.547   3.229   2.703
  705WAT      O 2152   0.867   2.812   2.167
  705WAT     H1 2153   0.884   2.721   2.136
  705WAT     H2 2154   0.777   2.817   2.205
  706WAT      O 2155   0.444   2.100   1.714
  706WAT     H1 2156   0.492   2.018   1.736
  706WAT     H2 2157   0.500   2.177   1.736
  707WAT      O 2158   0.892   2.481   1.768
  707WAT     H1 2159   0.887   2.577   1.752
  707WAT     H2 2160   0.845   2.434   1.696
  708WAT      O 2161   0.573   2.827   2.521
  708WAT     H1 2162   0.660   2.845   2.563
  708WAT     H2 2163   0.526   2.758   2.572
  709WAT      O 2164   1.098   1.848   2.178
  709WAT     H1 2165   1.090   1.931   2.127
  709WAT     H2 2166   1.013   1.800   2.177
  710WAT      O 2167   0.775   2.482   2.270
  710WAT     H1 2168   0.801   2.521   2.355
  710WAT     H2 2169   0.853   2.441   2.228
  711WAT      O 2170   0.968   1.972   2.509
  711WAT     H1 2171   1.012   1.921   2.579
  711WAT     H2 2172   0.976   1.924   2.424
  712WAT      O 2173   0.229   2.655   2.520
  712WAT     H1 2174   0.250   2.648   2.425
  712WAT     H2 2175   0.307   2.631   2.573
  713WAT      O 2176   0.864   2.830   2.541
  713WAT     H1 2177   0.901   2.849   2.630
  713WAT     H2 2178   0.855   2.733   2.530
  714WAT      O 2179   0.347   2.129   2.046
  714WAT     H1 2180   0.441   2.145   2.068
  714WAT     H2 2181   0.340   2.099   1.953
  715WAT      O 2182   0.553   1.950   2.266
  715WAT     H1 2183   0.550   1.921   2.172
  715WAT     H2 2184   0.602   1.884   2.318
  716WAT      O 2185   1.033   2.347   2.494
  716WAT     H1 2186   0.958   2.284   2.506
  716WAT     H2 2187   0.998   2.438   2.486
  717WAT      O 2188   1.074   3.302   2.151
  717WAT     H1 2189   1.107   3.213   2.125
  717WAT     H2 2190   1.135   3.341   2.217
  718WAT      O 2191   0.993   1.921   1.594
  718WAT     H1 2192   1.007   1.948   1.501
  718WAT     H2 2193   1.020   1.828   1.606
  719WAT      O 2194   0.836   2.748   1.672
  719WAT     H1 2195   0.796   2.726   1.586
  719WAT     H2 2196   0.887   2.831   1.665
  720WAT      O 2197   0.320   2.626   2.253
  720WAT     H1 2198   0.240   2.671   2.218
  720WAT     H2 2199   0.391   2.631   2.186
  721WAT      O 2200   0.548   2.367   1.865
  721WAT     H1 2201   0.565   2.463   1.879
  721WAT     H2 2202   0.573   2.317   1.945
  722WAT      O 2203   0.749   2.326   1.565
  722WAT     H1 2204   0.680   2.304   1.499
  722WAT     H2 2205   0.770   2.247   1.618
  723WAT      O 2206   1.098   2.327   1.789
  723WAT     H1 2207   1.034   2.401   1.795
  723WAT     H2 2208   1.157   2.328   1.867
  724WAT      O 2209   1.151   3.044   2.079
  724WAT     H1 2210   1.122   2.981   2.010
  724WAT     H2 2211   1.211   2.999   2.141
  725WAT      O 2212   0.178   1.993   2.195
  725WAT     H1 2213   0.232   2.043   2.130
  725WAT     H2 2214   0.225   1.911   2.220
  726WAT      O 2215   0.595   2.862   0.394
  726WAT     H1 2216   0.621   2.948   0.356
  726WAT     H2 2217   0.603   2.866   0.492
  727WAT      O 2218   0.222   2.363   0.312
  727WAT     H1 2219   0.270   2.293   0.263
  727WAT     H2 2220   0.287   2.428   0.347
  728WAT      O 2221   0.694   2.748   1.102
  728WAT     H1 2222   0.700   2.823   1.165
  728WAT     H2 2223   0.689   2.664   1.152
  729WAT      O 2224   1.041   3.094   0.866
  729WAT     H1 2225   1.136   3.118   0.858
  729WAT     H2 2226   1.033   3.016   0.925
  730WAT      O 2227   0.640   3.129   0.341
  730WAT     H1 2228   0.716   3.184   0.314
  730WAT     H2 2229   0.559   3.184   0.345
  731WAT      O 2230   0.965   3.028   0.510
  731WAT     H1 2231   0.996   2.994   0.423
  731WAT     H2 2232   0.918   2.957   0.558
  732WAT      O 2233   1.070   2.071   1.069
  732WAT     H1 2234   1.035   2.117   1.148
  732WAT     H2 2235   1.048   2.122   0.989
  733WAT      O 2236   0.844   1.881   0.952
  733WAT     H1 2237   0.769   1.904   0.893
  733WAT     H2 2238   0.833   1.926   1.038
  734WAT      O 2239   0.730   2.290   1.058
  734WAT     H1 2240   0.824   2.278   1.032
  734WAT     H2 2241   0.675   2.294   0.977
  735WAT      O 2242   1.027   3.129   1.325
  735WAT     H1 2243   1.079   3.085   1.396
  735WAT     H2 2244   0.953   3.179   1.365
  736WAT      O 2245   0.615   2.519   1.233
  736WAT     H1 2246   0.518   2.533   1.233
  736WAT     H2 2247   0.636   2.434   1.188
  737WAT      O 2248   0.549   2.220   1.416
  737WAT     H1 2249   0.530   2.152   1.347
  737WAT     H2 2250   0.466   2.265   1.441
  738WAT      O 2251   1.022   2.814   1.332
  738WAT     H1 2252   1.077   2.887   1.297
  738WAT     H2 2253   1.079   2.743   1.367
  739WAT      O 2254   0.302   2.592   1.176
  739WAT     H1 2255   0.287   2.669   1.234
  739WAT     H2 2256   0.346   2.621   1.094
  740WAT      O 2257   0.744   2.885   1.328
  740WAT     H1 2258   0.697   2.820   1.385
  740WAT     H2 2259   0.841   2.871   1.337
  741WAT      O 2260   0.397   2.154   1.030
  741WAT     H1 2261   0.443   2.092   1.090
  741WAT     H2 2262   0.334   2.209   1.081
  742WAT      O 2263   0.342   1.976   0.804
  742WAT     H1 2264   0.349   2.041   0.877
  742WAT     H2 2265   0.292   2.016   0.729
  743WAT      O 2266   0.409   3.049   0.632
  743WAT     H1 2267   0.455   2.963   0.640
  743WAT     H2 2268   0.463   3.119   0.675
  744WAT      O 2269   0.944   3.254   1.096
  744WAT     H1 2270   0.986   3.204   1.168
  744WAT     H2 2271   0.975   3.219   1.010
  745WAT      O 2272   1.103   2.577   0.182
  745WAT     H1 2273   1.117   2.614   0.272
  745WAT     H2 2274   1.082   2.482   0.190
  746WAT      O 2275   0.577   1.836   0.818
  746WAT     H1 2276   0.580   1.787   0.733
  746WAT     H2 2277   0.496   1.891   0.821
  747WAT      O 2278   1.002   1.801   1.181
  747WAT     H1 2279   1.037   1.886   1.215
  747WAT     H2 2280   1.003   1.803   1.083
  748WAT      O 2281   0.595   2.223   0.237
  748WAT     H1 2282   0.580   2.251   0.330
  748WAT     H2 2283   0.685   2.185   0.229
  749WAT      O 2284   0.354   2.986   0.981
  749WAT     H1 2285   0.271   2.987   1.032
  749WAT     H2 2286   0.406   3.067   1.000
  750WAT      O 2287   0.545   2.292   0.851
  750WAT     H1 2288   0.471   2.249   0.899
  750WAT     H2 2289   0.561   2.245   0.767
  751WAT      O 2290   0.446   2.741   1.000
  751WAT     H1 2291   0.539   2.743   1.031
  751WAT     H2 2292   0.416   2.831   0.978
  752WAT      O 2293   0.523   2.173   0.595
  752WAT     H1 2294   0.504   2.236   0.523
  752WAT     H2 2295   0.512   2.081   0.562
  753WAT      O 2296   0.760   2.044   1.191
  753WAT     H1 2297   0.723   2.122   1.144
  753WAT     H2 2298   0.688   2.000   1.242
  754WAT      O 2299   0.803   2.189   0.679
  754WAT     H1 2300   0.715   2.178   0.638
  754WAT     H2 2301   0.845   2.101   0.688
  755WAT      O 2302   0.977   2.050   1.340
  755WAT     H1 2303   0.976   2.134   1.391
  755WAT     H2 2304   0.905   2.053   1.273
  756WAT      O 2305   0.373   3.338   0.325
  756WAT     H1 2306   0.344   3.327   0.232
  756WAT     H2 2307   0.328   3.272   0.382
  757WAT      O 2308   0.958   2.252   0.912
  757WAT     H1 2309   0.996   2.342   0.912
  757WAT     H2 2310   0.906   2.239   0.830
  758WAT      O 2311   0.566   2.565   0.822
  758WAT     H1 2312   0.577   2.471   0.850
  758WAT     H2 2313   0.517   2.614   0.892
  759WAT      O 2314   0.801   2.568   0.688
  759WAT     H1 2315   0.711   2.574   0.727
  759WAT     H2 2316   0.863   2.532   0.755
  760WAT      O 2317   0.510   2.403   0.447
  760WAT     H1 2318   0.602   2.432   0.427
  760WAT     H2 2319   0.464   2.474   0.496
  761WAT      O 2320   0.583   3.242   0.759
  761WAT     H1 2321   0.675   3.276   0.766
  761WAT     H2 2322   0.547   3.229   0.849
  762WAT      O 2323   0.867   2.812   0.312
  762WAT     H1 2324   0.884   2.721   0.282
  762WAT     H2 2325   0.777   2.817   0.351
  763WAT      O 2326   0.535   3.182   1.032
  763WAT     H1 2327   0.485   3.200   1.115
  763WAT     H2 2328   0.631   3.193   1.049
  764WAT      O 2329   0.231   2.333   1.207
  764WAT     H1 2330   0.264   2.419   1.175
  764WAT     H2 2331   0.209   2.340   1.303
  765WAT      O 2332   0.573   2.827   0.666
  765WAT     H1 2333   0.660   2.845   0.709
  765WAT     H2 2334   0.526   2.758   0.718
  766WAT      O 2335   1.012   2.537   0.896
  766WAT     H1 2336   1.087   2.537   0.833
  766WAT     H2 2337   0.981   2.629   0.911
  767WAT      O 2338   1.098   1.848   0.324
  767WAT     H1 2339   1.090   1.931   0.273
  767WAT     H2 2340   1.013   1.800   0.323
  768WAT      O 2341   0.775   2.482   0.415
  768WAT     H1 2342   0.801   2.521   0.501
  768WAT     H2 2343   0.853   2.441   0.374
  769WAT      O 2344   0.451   3.155   1.286
  769WAT     H1 2345   0.360   3.184   1.309
  769WAT     H2 2346   0.491   3.109   1.363
  770WAT      O 2347   0.968   1.972   0.655
  770WAT     H1 2348   1.012   1.921   0.725
  770WAT     H2 2349   0.976   1.924   0.570
  771WAT      O 2350   1.041   2.445   1.186
  771WAT     H1 2351   1.093   2.525   1.208
  771WAT     H2 2352   0.969   2.469   1.125
  772WAT      O 2353   0.229   2.655   0.666
  772WAT     H1 2354   0.250   2.648   0.571
  772WAT     H2 2355   0.307   2.631   0.719
  773WAT      O 2356   0.990   2.330   1.419
  773WAT     H1 2357   0.993   2.388   1.340
  773WAT     H2 2358   0.914   2.356   1.475
  774WAT      O 2359   0.864   2.830   0.687
  774WAT     H1 2360   0.901   2.849   0.776
  774WAT     H2 2361   0.855   2.733   0.676
  775WAT      O 2362   0.553   1.950   0.411
  775WAT     H1 2363   0.550   1.921   0.318
  775WAT     H2 2364   0.602   1.884   0.464
  776WAT      O 2365   1.033   2.347   0.640
  776WAT     H1 2366   0.958   2.284   0.652
  776WAT     H2 2367   0.998   2.438   0.632
  777WAT      O 2368   1.074   3.302   0.296
  777WAT     H1 2369   1.107   3.213   0.271
  777WAT     H2 2370   1.135   3.341   0.362
  778WAT      O 2371   0.320   2.626   0.398
  778WAT     H1 2372   0.240   2.671   0.364
  778WAT     H2 2373   0.391   2.631   0.331
  779WAT      O 2374   0.501   1.965   1.242
  779WAT     H1 2375   0.506   1.877   1.199
  779WAT     H2 2376   0.435   1.962   1.314
  780WAT      O 2377   0.178   1.993   0.341
  780WAT     H1 2378   0.232   2.043   0.276
  780WAT     H2 2379   0.225   1.911   0.366
  781WAT      O 2380   0.925   2.809   0.952
  781WAT     H1 2381   0.992   2.851   1.010
  781WAT     H2 2382   0.841   2.800   1.001
  782WAT      O 2383   0.295   1.371   1.656
  782WAT     H1 2384   0.366   1.311   1.624
  782WAT     H2 2385   0.221   1.371   1.592
  783WAT      O 2386   0.595   0.987   2.249
  783WAT     H1 2387   0.621   1.073   2.210
  783WAT     H2 2388   0.603   0.991   2.346
  784WAT      O 2389   0.616   1.603   2.097
  784WAT     H1 2390   0.525   1.568   2.095
  784WAT     H2 2391   0.676   1.536   2.134
  785WAT      O 2392   0.222   0.488   2.166
  785WAT     H1 2393   0.270   0.418   2.117
  785WAT     H2 2394   0.287   0.553   2.201
  786WAT      O 2395   0.526   1.240   1.562
  786WAT     H1 2396   0.610   1.274   1.525
  786WAT     H2 2397   0.540   1.214   1.656
  787WAT      O 2398   0.805   1.124   1.943
  787WAT     H1 2399   0.810   1.063   2.019
  787WAT     H2 2400   0.809   1.217   1.975
  788WAT      O 2401   0.640   1.254   2.196
  788WAT     H1 2402   0.716   1.309   2.168
  788WAT     H2 2403   0.559   1.309   2.199
  789WAT      O 2404   0.965   1.153   2.364
  789WAT     H1 2405   0.996   1.119   2.277
  789WAT     H2 2406   0.918   1.082   2.412
  790WAT      O 2407   0.509   0.810   2.049
  790WAT     H1 2408   0.550   0.881   2.102
  790WAT     H2 2409   0.559   0.799   1.965
  791WAT      O 2410   0.544   1.163   1.838
  791WAT     H1 2411   0.502   1.223   1.903
  791WAT     H2 2412   0.640   1.156   1.858
  792WAT      O 2413   0.226   0.812   1.980
  792WAT     H1 2414   0.204   0.898   2.020
  792WAT     H2 2415   0.321   0.793   1.993
  793WAT      O 2416   0.628   0.753   1.818
  793WAT     H1 2417   0.705   0.786   1.767
  793WAT     H2 2418   0.546   0.774   1.769
  794WAT      O 2419   0.359   0.537   1.477
  794WAT     H1 2420   0.404   0.623   1.464
  794WAT     H2 2421   0.265   0.552   1.500
  795WAT      O 2422   0.810   0.237   1.983
  795WAT     H1 2423   0.895   0.212   2.025
  795WAT     H2 2424   0.818   0.230   1.886
  796WAT      O 2425   0.409   1.174   2.487
  796WAT     H1 2426   0.455   1.088   2.495
  796WAT     H2 2427   0.463   1.244   2.529
  797WAT      O 2428   0.389   0.930   1.758
  797WAT     H1 2429   0.431   1.017   1.770
  797WAT     H2 2430   0.322   0.916   1.827
  798WAT      O 2431   1.103   0.702   2.036
  798WAT     H1 2432   1.117   0.739   2.126
  798WAT     H2 2433   1.082   0.607   2.044
  799WAT      O 2434   0.315   1.391   1.922
  799WAT     H1 2435   0.220   1.382   1.946
  799WAT     H2 2436   0.323   1.403   1.825
  800WAT      O 2437   0.816   1.392   1.986
  800WAT     H1 2438   0.775   1.467   1.940
  800WAT     H2 2439   0.907   1.415   2.014
  801WAT      O 2440   0.595   0.348   2.091
  801WAT     H1 2441   0.580   0.376   2.184
  801WAT     H2 2442   0.685   0.310   2.083
  802WAT      O 2443   0.664   0.790   1.473
  802WAT     H1 2444   0.572   0.800   1.505
  802WAT     H2 2445   0.671   0.711   1.417
  803WAT      O 2446   0.869   1.412   2.616
  803WAT     H1 2447   0.918   1.343   2.664
  803WAT     H2 2448   0.908   1.500   2.635
  804WAT      O 2449   0.523   0.298   2.449
  804WAT     H1 2450   0.504   0.361   2.377
  804WAT     H2 2451   0.512   0.206   2.416
  805WAT      O 2452   0.292   0.482   1.753
  805WAT     H1 2453   0.300   0.443   1.663
  805WAT     H2 2454   0.376   0.470   1.801
  806WAT      O 2455   0.787   1.242   1.497
  806WAT     H1 2456   0.838   1.193   1.565
  806WAT     H2 2457   0.756   1.179   1.428
  807WAT      O 2458   0.803   0.314   2.533
  807WAT     H1 2459   0.715   0.303   2.492
  807WAT     H2 2460   0.845   0.226   2.543
  808WAT      O 2461   0.373   1.463   2.179
  808WAT     H1 2462   0.344   1.452   2.087
  808WAT     H2 2463   0.328   1.397   2.236
  809WAT      O 2464   1.080   0.943   1.904
  809WAT     H1 2465   1.089   0.857   1.951
  809WAT     H2 2466   0.986   0.969   1.903
  810WAT      O 2467   0.907   0.492   2.029
  810WAT     H1 2468   0.862   0.410   1.999
  810WAT     H2 2469   0.899   0.561   1.960
  811WAT      O 2470   0.939   1.165   1.695
  811WAT     H1 2471   0.897   1.149   1.782
  811WAT     H2 2472   1.011   1.231   1.705
  812WAT      O 2473   0.858   1.482   2.308
  812WAT     H1 2474   0.940   1.451   2.265
  812WAT     H2 2475   0.852   1.444   2.398
  813WAT      O 2476   0.801   0.693   2.543
  813WAT     H1 2477   0.711   0.699   2.581
  813WAT     H2 2478   0.863   0.657   2.610
  814WAT      O 2479   0.510   0.528   2.301
  814WAT     H1 2480   0.602   0.557   2.281
  814WAT     H2 2481   0.464   0.599   2.350
  815WAT      O 2482   0.400   0.822   1.518
  815WAT     H1 2483   0.394   0.887   1.591
  815WAT     H2 2484   0.354   0.857   1.439
  816WAT      O 2485   0.583   1.367   2.613
  816WAT     H1 2486   0.675   1.401   2.620
  816WAT     H2 2487   0.547   1.354   2.703
  817WAT      O 2488   0.867   0.937   2.167
  817WAT     H1 2489   0.884   0.846   2.136
  817WAT     H2 2490   0.777   0.942   2.205
  818WAT      O 2491   0.769   1.589   1.812
  818WAT     H1 2492   0.797   1.537   1.733
  818WAT     H2 2493   0.680   1.625   1.798
  819WAT      O 2494   0.892   0.606   1.768
  819WAT     H1 2495   0.887   0.702   1.752
  819WAT     H2 2496   0.845   0.559   1.696
  820WAT      O 2497   0.652   1.722   2.433
  820WAT     H1 2498   0.589   1.650   2.412
  820WAT     H2 2499   0.742   1.686   2.441
  821WAT      O 2500   0.573   0.952   2.521
  821WAT     H1 2501   0.660   0.970   2.563
  821WAT     H2 2502   0.526   0.883   2.572
  822WAT      O 2503   0.324   1.759   2.298
  822WAT     H1 2504   0.397   1.819   2.322
  822WAT     H2 2505   0.347   1.667   2.324
  823WAT      O 2506   0.775   0.607   2.270
  823WAT     H1 2507   0.801   0.646   2.355
  823WAT     H2 2508   0.853   0.566   2.228
  824WAT      O 2509   0.229   0.780   2.520
  824WAT     H1 2510   0.250   0.773   2.425
  824WAT     H2 2511   0.307   0.756   2.573
  825WAT      O 2512   1.056   1.593   1.900
  825WAT     H1 2513   0.960   1.613   1.903
  825WAT     H2 2514   1.094   1.600   1.990
  826WAT      O 2515   0.864   0.955   2.541
  826WAT     H1 2516   0.901   0.974   2.630
  826WAT     H2 2517   0.855   0.858   2.530
  827WAT      O 2518   0.347   0.254   2.046
  827WAT     H1 2519   0.441   0.270   2.068
  827WAT     H2 2520   0.340   0.224   1.953
  828WAT      O 2521   1.033   0.472   2.494
  828WAT     H1 2522   0.958   0.409   2.506
  828WAT     H2 2523   0.998   0.563   2.486
  829WAT      O 2524   1.074   1.427   2.151
  829WAT     H1 2525   1.107   1.338   2.125
  829WAT     H2 2526   1.135   1.466   2.217
  830WAT      O 2527   0.444   1.542   2.476
  830WAT     H1 2528   0.494   1.474   2.526
  830WAT     H2 2529   0.348   1.524   2.482
  831WAT      O 2530   0.836   0.873   1.672
  831WAT     H1 2531   0.796   0.851   1.586
  831WAT     H2 2532   0.887   0.956   1.665
  832WAT      O 2533   0.320   0.751   2.253
  832WAT     H1 2534   0.240   0.796   2.218
  832WAT     H2 2535   0.391   0.756   2.186
  833WAT      O 2536   0.582   1.669   1.624
  833WAT     H1 2537   0.528   1.679   1.543
  833WAT     H2 2538   0.662   1.616   1.603
  834WAT      O 2539   0.548   0.492   1.865
  834WAT     H1 2540   0.565   0.588   1.879
  834WAT     H2 2541   0.573   0.442   1.945
  835WAT      O 2542   0.817   1.516   1.557
  835WAT     H1 2543   0.872   1.547   1.483
  835WAT     H2 2544   0.795   1.421   1.545
  836WAT      O 2545   0.749   0.451   1.565
  836WAT     H1 2546   0.680   0.429   1.499
  836WAT     H2 2547   0.770   0.372   1.618
  837WAT      O 2548   1.098   0.452   1.789
  837WAT     H1 2549   1.034   0.526   1.795
  837WAT     H2 2550   1.157   0.453   1.867
  838WAT      O 2551   0.858   1.715   2.186
  838WAT     H1 2552   0.781   1.739   2.131
  838WAT     H2 2553   0.842   1.628   2.227
  839WAT      O 2554   1.151   1.169   2.079
  839WAT     H1 2555   1.122   1.106   2.010
  839WAT     H2 2556   1.211   1.124   2.141
  840WAT      O 2557   0.595   0.987   0.394
  840WAT     H1 2558   0.621   1.073   0.356
  840WAT     H2 2559   0.603   0.991   0.492
  841WAT      O 2560   0.616   1.603   0.243
  841WAT     H1 2561   0.525   1.568   0.240
  841WAT     H2 2562   0.676   1.536   0.280
  842WAT      O 2563   0.796   1.593   1.123
  842WAT     H1 2564   0.851   1.670   1.149
  842WAT     H2 2565   0.852   1.514   1.115
  843WAT      O 2566   0.222   0.488   0.312
  843WAT     H1 2567   0.270   0.418   0.263
  843WAT     H2 2568   0.287   0.553   0.347
  844WAT      O 2569   0.694   0.873   1.102
  844WAT     H1 2570   0.700   0.948   1.165
  844WAT     H2 2571   0.689   0.789   1.152
  845WAT      O 2572   1.041   1.219   0.866
  845WAT     H1 2573   1.136   1.243   0.858
  845WAT     H2 2574   1.033   1.141   0.925
  846WAT      O 2575   0.640   1.254   0.341
  846WAT     H1 2576   0.716   1.309   0.314
  846WAT     H2 2577   0.559   1.309   0.345
  847WAT      O 2578   0.965   1.153   0.510
  847WAT     H1 2579   0.996   1.119   0.423
  847WAT     H2 2580   0.918   1.082   0.558
  848WAT      O 2581   1.070   0.196   1.069
  848WAT     H1 2582   1.035   0.242   1.148
  848WAT     H2 2583   1.048   0.247   0.989
  849WAT      O 2584   0.470   1.631   1.389
  849WAT     H1 2585   0.512   1.655   1.304
  849WAT     H2 2586   0.437   1.539   1.384
  850WAT      O 2587   0.730   0.415   1.058
  850WAT     H1 2588   0.824   0.403   1.032
  850WAT     H2 2589   0.675   0.419   0.977
  851WAT      O 2590   1.027   1.254   1.325
  851WAT     H1 2591   1.079   1.210   1.396
  851WAT     H2 2592   0.953   1.304   1.365
  852WAT      O 2593   0.615   0.644   1.233
  852WAT     H1 2594   0.518   0.658   1.233
  852WAT     H2 2595   0.636   0.559   1.188
  853WAT      O 2596   0.549   0.345   1.416
  853WAT     H1 2597   0.530   0.277   1.347
  853WAT     H2 2598   0.466   0.390   1.441
  854WAT      O 2599   1.022   0.939   1.332
  854WAT     H1 2600   1.077   1.012   1.297
  854WAT     H2 2601   1.079   0.868   1.367
  855WAT      O 2602   0.302   0.717   1.176
  855WAT     H1 2603   0.287   0.794   1.234
  855WAT     H2 2604   0.346   0.746   1.094
  856WAT      O 2605   0.744   1.010   1.328
  856WAT     H1 2606   0.697   0.945   1.385
  856WAT     H2 2607   0.841   0.996   1.337
  857WAT      O 2608   0.397   0.279   1.030
  857WAT     H1 2609   0.443   0.217   1.090
  857WAT     H2 2610   0.334   0.334   1.081
  858WAT      O 2611   0.409   1.174   0.632
  858WAT     H1 2612   0.455   1.088   0.640
  858WAT     H2 2613   0.463   1.244   0.675
  859WAT      O 2614   0.944   1.379   1.096
  859WAT     H1 2615   0.986   1.329   1.168
  859WAT     H2 2616   0.975   1.344   1.010
  860WAT      O 2617   1.103   0.702   0.182
  860WAT     H1 2618   1.117   0.739   0.272
  860WAT     H2 2619   1.082   0.607   0.190
  861WAT      O 2620   0.595   0.348   0.237
  861WAT     H1 2621   0.580   0.376   0.330
  861WAT     H2 2622   0.685   0.310   0.229
  862WAT      O 2623   0.354   1.111   0.981
  862WAT     H1 2624   0.271   1.112   1.032
  862WAT     H2 2625   0.406   1.192   1.000
  863WAT      O 2626   0.869   1.412   0.762
  863WAT     H1 2627   0.918   1.343   0.810
  863WAT     H2 2628   0.908   1.500   0.781
  864WAT      O 2629   0.545   0.417   0.851
  864WAT     H1 2630   0.471   0.374   0.899
  864WAT     H2 2631   0.561   0.370   0.767
  865WAT      O 2632   0.446   0.866   1.000
  865WAT     H1 2633   0.539   0.868   1.031
  865WAT     H2 2634   0.416   0.956   0.978
  866WAT      O 2635   0.523   0.298   0.595
  866WAT     H1 2636   0.504   0.361   0.523
  866WAT     H2 2637   0.512   0.206   0.562
  867WAT      O 2638   0.803   0.314   0.679
  867WAT     H1 2639   0.715   0.303   0.638
  867WAT     H2 2640   0.845   0.226   0.688
  868WAT      O 2641   0.373   1.463   0.325
  868WAT     H1 2642   0.344   1.452   0.232
  868WAT     H2 2643   0.328   1.397   0.382
  869WAT      O 2644   0.958   0.377   0.912
  869WAT     H1 2645   0.996   0.467   0.912
  869WAT     H2 2646   0.906   0.364   0.830
  870WAT      O 2647   0.566   0.690   0.822
  870WAT     H1 2648   0.577   0.596   0.850
  870WAT     H2 2649   0.517   0.739   0.892
  871WAT      O 2650   0.858   1.482   0.454
  871WAT     H1 2651   0.940   1.451   0.411
  871WAT     H2 2652   0.852   1.444   0.544
  872WAT      O 2653   0.801   0.693   0.688
  872WAT     H1 2654   0.711   0.699   0.727
  872WAT     H2 2655   0.863   0.657   0.755
  873WAT      O 2656   0.510   0.528   0.447
  873WAT     H1 2657   0.602   0.557   0.427
  873WAT     H2 2658   0.464   0.599   0.496
  874WAT      O 2659   0.583   1.367   0.759
  874WAT     H1 2660   0.675   1.401   0.766
  874WAT     H2 2661   0.547   1.354   0.849
  875WAT      O 2662   0.867   0.937   0.312
  875WAT     H1 2663   0.884   0.846   0.282
  875WAT     H2 2664   0.777   0.942   0.351
  876WAT      O 2665   1.003   1.593   1.378
  876WAT     H1 2666   1.046   1.617   1.462
  876WAT     H2 2667   1.005   1.670   1.317
  877WAT      O 2668   0.535   1.307   1.032
  877WAT     H1 2669   0.485   1.325   1.115
  877WAT     H2 2670   0.631   1.318   1.049
  878WAT      O 2671   0.231   0.458   1.207
  878WAT     H1 2672   0.264   0.544   1.175
  878WAT     H2 2673   0.209   0.465   1.303
  879WAT      O 2674   0.652   1.722   0.578
  879WAT     H1 2675   0.589   1.650   0.558
  879WAT     H2 2676   0.742   1.686   0.587
  880WAT      O 2677   0.573   0.952   0.666
  880WAT     H1 2678   0.660   0.970   0.709
  880WAT     H2 2679   0.526   0.883   0.718
  881WAT      O 2680   1.012   0.662   0.896
  881WAT     H1 2681   1.087   0.662   0.833
  881WAT     H2 2682   0.981   0.754   0.911
  882WAT      O 2683   0.324   1.759   0.444
  882WAT     H1 2684   0.397   1.819   0.468
  882WAT     H2 2685   0.347   1.667   0.470
  883WAT      O 2686   0.775   0.607   0.415
  883WAT     H1 2687   0.801   0.646   0.501
  883WAT     H2 2688   0.853   0.566   0.374
  884WAT      O 2689   0.451   1.280   1.286
  884WAT     H1 2690   0.360   1.309   1.309
  884WAT     H2 2691   0.491   1.234   1.363
  885WAT      O 2692   1.041   0.570   1.186
  885WAT     H1 2693   1.093   0.650   1.208
  885WAT     H2 2694   0.969   0.594   1.125
  886WAT      O 2695   0.229   0.780   0.666
  886WAT     H1 2696   0.250   0.773   0.571
  886WAT     H2 2697   0.307   0.756   0.719
  887WAT      O 2698   0.990   0.455   1.419
  887WAT     H1 2699   0.993   0.513   1.340
  887WAT     H2 2700   0.914   0.481   1.475
  888WAT      O 2701   0.974   1.657   0.854
  888WAT     H1 2702   1.031   1.707   0.790
  888WAT     H2 2703   0.899   1.714   0.882
  889WAT      O 2704   0.864   0.955   0.687
  889WAT     H1 2705   0.901   0.974   0.776
  889WAT     H2 2706   0.855   0.858   0.676
  890WAT      O 2707   1.033   0.472   0.640
  890WAT     H1 2708   0.958   0.409   0.652
  890WAT     H2 2709   0.998   0.563   0.632
  891WAT      O 2710   1.074   1.427   0.296
  891WAT     H1 2711   1.107   1.338   0.271
  891WAT     H2 2712   1.135   1.466   0.362
  892WAT      O 2713   0.550   1.727   1.110
  892WAT     H1 2714   0.512   1.745   1.021
  892WAT     H2 2715   0.628   1.668   1.100
  893WAT      O 2716   0.444   1.542   0.621
  893WAT     H1 2717   0.494   1.474   0.671
  893WAT     H2 2718   0.348   1.524   0.628
  894WAT      O 2719   0.320   0.751   0.398
  894WAT     H1 2720   0.240   0.796   0.364
  894WAT     H2 2721   0.391   0.756   0.331
  895WAT      O 2722   0.858   1.715   0.332
  895WAT     H1 2723   0.781   1.739   0.276
  895WAT     H2 2724   0.842   1.628   0.373
  896WAT      O 2725   0.925   0.934   0.952
  896WAT     H1 2726   0.992   0.976   1.010
  896WAT     H2 2727   0.841   0.925   1.001
   4.14512   3.51650   2.85000
