PPI
   42
    1MOL      C    1  -0.072   0.096   0.022
    1MOL     C1    2  -0.143  -0.027   0.018
    1MOL     C2    3  -0.281  -0.035   0.028
    1MOL     C3    4  -0.352   0.086   0.043
    1MOL     C4    5  -0.281   0.209   0.047
    1MOL     C5    6  -0.142   0.218   0.037
    1MOL     C6    7   0.070   0.078   0.010
    1MOL     C7    8   0.108  -0.052  -0.003
    1MOL      S    9  -0.030  -0.160  -0.001
    1MOL     C8   10  -0.494   0.107   0.056
    1MOL     C9   11  -0.528   0.237   0.069
    1MOL     S1   12  -0.392   0.343   0.066
    1MOL    C10   13  -0.068   0.348   0.042
    1MOL    C11   14  -0.354  -0.166   0.024
    1MOL    C12   15   0.243  -0.103  -0.017
    1MOL    C13   16   0.287  -0.233  -0.031
    1MOL    C14   17   0.428  -0.243  -0.042
    1MOL    C15   18   0.493  -0.122  -0.038
    1MOL     S2   19   0.377   0.006  -0.019
    1MOL    C16   20   0.636  -0.089  -0.046
    1MOL    C17   21   0.739  -0.189  -0.061
    1MOL    C18   22   0.878  -0.149  -0.069
    1MOL    C19   23   0.915  -0.011  -0.060
    1MOL    C20   24   0.815   0.080  -0.046
    1MOL    C21   25   0.679   0.042  -0.038
    1MOL      N   26   0.725  -0.321  -0.071
    1MOL     S3   27   0.873  -0.385  -0.087
    1MOL     N1   28   0.963  -0.250  -0.083
    1MOL      H   29   0.140   0.161   0.011
    1MOL     H1   30  -0.567   0.026   0.055
    1MOL     H2   31  -0.628   0.278   0.080
    1MOL     H3   32  -0.010   0.362  -0.050
    1MOL     H4   33  -0.136   0.433   0.053
    1MOL     H5   34   0.003   0.349   0.125
    1MOL     H6   35  -0.285  -0.250   0.012
    1MOL     H7   36  -0.412  -0.183   0.116
    1MOL     H8   37  -0.426  -0.169  -0.059
    1MOL     H9   38   0.221  -0.318  -0.032
    1MOL    H10   39   0.484  -0.336  -0.053
    1MOL    H11   40   1.020   0.017  -0.066
    1MOL    H12   41   0.839   0.186  -0.039
    1MOL    H13   42   0.605   0.121  -0.027
   2.14733   1.31812   0.71176
