; Warnings during GROMACS export:
; improper (15, 19, 18, 20) omitted from [ dihedrals ] because no torsion terms are assigned
; improper (15, 19, 18, 21) omitted from [ dihedrals ] because no torsion terms are assigned
; improper (15, 20, 18, 21) omitted from [ dihedrals ] because no torsion terms are assigned
; improper (19, 20, 18, 21) omitted from [ dihedrals ] because no torsion terms are assigned
; improper (18, 22, 19, 23) omitted from [ dihedrals ] because no torsion terms are assigned
; improper (18, 22, 19, 24) omitted from [ dihedrals ] because no torsion terms are assigned
; improper (18, 23, 19, 24) omitted from [ dihedrals ] because no torsion terms are assigned
; improper (22, 23, 19, 24) omitted from [ dihedrals ] because no torsion terms are assigned

; File corr2.top was generated by MAPLE parmfit
; This is a standalone topology file
[ defaults ]
; nbfunc        comb-rule       gen-pairs       fudgeLJ fudgeQQ
1               2               yes             0.5     0.83333333

[ atomtypes ]
; name    at.num    mass    charge ptype  sigma      epsilon
ca              6   12.011000  0.00000000  A    0.33152123     0.4133792
ha              1    1.008000  0.00000000  A    0.26254785     0.0673624
c3              6   12.011000  0.00000000  A    0.33977095     0.4510352
hc              1    1.008000  0.00000000  A    0.26001770     0.0870272
c               6   12.011000  0.00000000  A    0.33152123     0.4133792
o               8   15.999000  0.00000000  A    0.30481209     0.6121192
oh              8   15.999000  0.00000000  A    0.32428713     0.3891120
ho              1    1.008000  0.00000000  A    0.05379246     0.0196648

[ moleculetype ]
; Name            nrexcl
MOL             3

[ atoms ]
; nr       type  resnr residue  atom   cgnr    charge       mass
; residue    1 MOL rtp MOL q 0.0
    1         ca      1     MOL     C1      1  -0.10800000   12.011000
    2         ca      1     MOL     C2      2  -0.09900000   12.011000
    3         ca      1     MOL     C3      3  -0.03500000   12.011000
    4         ca      1     MOL     C4      4  -0.03500000   12.011000
    5         ca      1     MOL     C5      5  -0.09900000   12.011000
    6         ca      1     MOL     C6      6  -0.10800000   12.011000
    7         ha      1     MOL     H7      7  0.11800000    1.008000
    8         ha      1     MOL     H8      8  0.11500000    1.008000
    9         ha      1     MOL     H9      9  0.11500000    1.008000
   10         ca      1     MOL    C10     10  -0.08900000   12.011000
   11         ca      1     MOL    C11     11  -0.09400000   12.011000
   12         ha      1     MOL    H12     12  0.11500000    1.008000
   13         ha      1     MOL    H13     13  0.11500000    1.008000
   14         ca      1     MOL    C14     14  -0.10700000   12.011000
   15         ca      1     MOL    C15     15  -0.08930000   12.011000
   16         ha      1     MOL    H16     16  0.11600000    1.008000
   17         ha      1     MOL    H17     17  0.11200000    1.008000
   18         c3      1     MOL    C18     18  -0.03310000   12.011000
   19         c3      1     MOL    C19     19  -0.12140000   12.011000
   20         hc      1     MOL    H20     20  0.06470000    1.008000
   21         hc      1     MOL    H21     21  0.06470000    1.008000
   22         hc      1     MOL    H22     22  0.08120000    1.008000
   23         hc      1     MOL    H23     23  0.08120000    1.008000
   24          c      1     MOL    C24     24  0.59810000   12.011000
   25          o      1     MOL    O25     25  -0.50800000   15.999000
   26         oh      1     MOL    O26     26  -0.64610000   15.999000
   27         ho      1     MOL    H27     27  0.47800000    1.008000

[ bonds ]
; ai     aj funct         c0         c1
     1      2     1     0.13691 402414.659043
     1      6     1     0.14180 295238.424792
     1      8     1     0.10869 328771.869645
     2      3     1     0.14192 289592.203234
     2      9     1     0.10882 325734.286278
     3      4     1     0.14164 286780.072731
     3     10     1     0.14208 278233.523274
     4      5     1     0.14229 283419.278175
     4     11     1     0.14216 281813.316201
     5      6     1     0.13702 400747.339029
     5     12     1     0.10882 325932.109686
     6     13     1     0.10871 328166.867165
     7     10     1     0.10885 324827.116009
    10     15     1     0.13747 379806.730199
    11     14     1     0.13693 396235.392995
    11     16     1     0.10879 325521.796803
    14     15     1     0.14222 280707.521700
    14     17     1     0.10892 320621.145994
    15     18     1     0.15153 209169.626591
    18     19     1     0.15480 172597.641882
    18     20     1     0.10970 301800.587082
    18     21     1     0.10958 304397.691375
    19     22     1     0.10954 308304.036728
    19     23     1     0.10934 311091.722025
    19     24     1     0.15083 213667.931920
    24     25     1     0.12074 751271.455916
    24     26     1     0.13516 289309.509185
    26     27     1     0.09717 465692.110752

[ pairs ]
; ai     aj funct
     1      4     1
     1     10     1
     1     12     1
     2      5     1
     2      7     1
     2     11     1
     2     13     1
     2     15     1
     3      6     1
     3      8     1
     3     12     1
     3     14     1
     3     16     1
     3     18     1
     4      7     1
     4      9     1
     4     13     1
     4     15     1
     4     17     1
     5      8     1
     5     10     1
     5     14     1
     5     16     1
     6      9     1
     6     11     1
     7     14     1
     7     18     1
     8      9     1
     8     13     1
     9     10     1
    10     11     1
    10     17     1
    10     19     1
    10     20     1
    10     21     1
    11     12     1
    11     18     1
    12     13     1
    14     19     1
    14     20     1
    14     21     1
    15     16     1
    15     22     1
    15     23     1
    15     24     1
    16     17     1
    17     18     1
    18     25     1
    18     26     1
    19     27     1
    20     22     1
    20     23     1
    20     24     1
    21     22     1
    21     23     1
    21     24     1
    22     25     1
    22     26     1
    23     25     1
    23     26     1
    25     27     1

[ angles ]
; ai     aj     ak funct         c0         c1
     2      1      6     1  120.205783    958.355808
     2      1      8     1  120.330015    289.772528
     6      1      8     1  119.463883    295.342939
     1      2      3     1  120.689863    756.579040
     1      2      9     1  120.790830    299.563601
     3      2      9     1  118.516860    281.189002
     2      3      4     1  119.202945    795.900551
     2      3     10     1  121.480728    865.680084
     4      3     10     1  119.312334    811.672635
     3      4      5     1  119.008621    783.114542
     3      4     11     1  118.313168    770.873930
     5      4     11     1  122.678090    864.045776
     4      5      6     1  120.549946    726.489838
     4      5     12     1  118.974129    281.140847
     6      5     12     1  120.474965    304.206956
     1      6      5     1  120.336754    957.622681
     1      6     13     1  119.265872    294.866489
     5      6     13     1  120.397250    289.290670
     3     10      7     1  117.771428    279.148130
     3     10     15     1  121.770357    709.992999
     7     10     15     1  120.457155    290.346943
     4     11     14     1  120.899319    703.907175
     4     11     16     1  118.875273    277.513243
    14     11     16     1  120.224802    294.288967
    11     14     15     1  121.353495    892.655519
    11     14     17     1  119.313528    299.865061
    15     14     17     1  119.329328    302.828986
    10     15     14     1  118.247567    946.409091
    10     15     18     1  121.322452    694.423205
    14     15     18     1  120.420355    723.061171
    15     18     19     1  114.548525    636.867536
    15     18     20     1  109.621711    473.055447
    15     18     21     1  109.638028    513.789245
    19     18     20     1  108.340968    465.883598
    19     18     21     1  107.740085    414.801014
    20     18     21     1  106.641758    303.314557
    18     19     22     1  109.347746    419.575244
    18     19     23     1  110.516067    401.335413
    18     19     24     1  112.553787    988.736391
    22     19     23     1  108.955757    312.745225
    22     19     24     1  108.296702    532.786011
    23     19     24     1  107.074588    495.613388
    19     24     25     1  125.923714    579.926301
    19     24     26     1  112.084029    782.225248
    25     24     26     1  121.985127    626.200601
    24     26     27     1  105.420586    633.969056

[ dihedrals ]
; ai     aj     ak     al funct         c0         c1    mult
     3      2      1      6     1 180.0000000  15.1670000    2
     6      1      2      9     1 180.0000000  15.1670000    2
     3      2      1      8     1 180.0000000  15.1670000    2
     8      1      2      9     1 180.0000000  15.1670000    2
     2      1      6      5     1 180.0000000  15.1670000    2
     2      1      6     13     1 180.0000000  15.1670000    2
     5      6      1      8     1 180.0000000  15.1670000    2
     8      1      6     13     1 180.0000000  15.1670000    2
     1      2      3      4     1 180.0000000  15.1670000    2
     1      2      3     10     1 180.0000000  15.1670000    2
     4      3      2      9     1 180.0000000  15.1670000    2
     9      2      3     10     1 180.0000000  15.1670000    2
     2      3      4      5     1 180.0000000  15.1670000    2
     2      3      4     11     1 180.0000000  15.1670000    2
     5      4      3     10     1 180.0000000  15.1670000    2
    10      3      4     11     1 180.0000000  15.1670000    2
     2      3     10      7     1 180.0000000  15.1670000    2
     2      3     10     15     1 180.0000000  15.1670000    2
     4      3     10      7     1 180.0000000  15.1670000    2
     4      3     10     15     1 180.0000000  15.1670000    2
     3      4      5      6     1 180.0000000  15.1670000    2
     3      4      5     12     1 180.0000000  15.1670000    2
     6      5      4     11     1 180.0000000  15.1670000    2
    11      4      5     12     1 180.0000000  15.1670000    2
     3      4     11     14     1 180.0000000  15.1670000    2
     3      4     11     16     1 180.0000000  15.1670000    2
     5      4     11     14     1 180.0000000  15.1670000    2
     5      4     11     16     1 180.0000000  15.1670000    2
     1      6      5      4     1 180.0000000  15.1670000    2
     4      5      6     13     1 180.0000000  15.1670000    2
     1      6      5     12     1 180.0000000  15.1670000    2
    12      5      6     13     1 180.0000000  15.1670000    2
     3     10     15     14     1 180.0000000  15.1670000    2
     3     10     15     18     1 180.0000000  15.1670000    2
     7     10     15     14     1 180.0000000  15.1670000    2
     7     10     15     18     1 180.0000000  15.1670000    2
     4     11     14     15     1 180.0000000  15.1670000    2
     4     11     14     17     1 180.0000000  15.1670000    2
    15     14     11     16     1 180.0000000  15.1670000    2
    16     11     14     17     1 180.0000000  15.1670000    2
    10     15     14     11     1 180.0000000  15.1670000    2
    11     14     15     18     1 180.0000000  15.1670000    2
    10     15     14     17     1 180.0000000  15.1670000    2
    17     14     15     18     1 180.0000000  15.1670000    2
    10     15     18     19     1 180.0000000   0.8085379    2
    10     15     18     20     1   0.0000000   0.0603358    1
    10     15     18     21     1   0.0000000  -0.2400341    1
    14     15     18     19     1 180.0000000   0.7137872    2
    14     15     18     20     1   0.0000000  -0.1251516    1
    14     15     18     21     1   0.0000000   0.2163902    1
    15     18     19     22     1   0.0000000  -0.5903524    3
    15     18     19     23     1   0.0000000  -0.7139824    3
    15     18     19     24     1   0.0000000   2.1585751    1
    20     18     19     22     1   0.0000000  -0.7172790    3
    20     18     19     23     1   0.0000000  -0.8317437    3
    20     18     19     24     1   0.0000000  -0.5296248    3
    21     18     19     22     1   0.0000000  -0.6441357    3
    21     18     19     23     1   0.0000000  -0.7581909    3
    21     18     19     24     1   0.0000000  -0.5032612    3
    18     19     24     25     1 180.0000000   3.2253980    2
    18     19     24     25     1 180.0000000   0.8902046    3
    18     19     24     25     1   0.0000000   4.2592869    1
    18     19     24     26     1 180.0000000   2.4444953    2
    22     19     24     25     1   0.0000000   5.7692432    1
    22     19     24     25     1 180.0000000   0.9411503    2
    22     19     24     26     1 180.0000000  -1.1505435    2
    23     19     24     25     1   0.0000000   3.0632462    1
    23     19     24     25     1 180.0000000   2.1066636    2
    23     19     24     26     1 180.0000000  -0.9611692    2
    19     24     26     27     1 180.0000000   7.6630248    2
    25     24     26     27     1 180.0000000  10.3272748    2
    25     24     26     27     1   0.0000000  -4.7252212    1
     2      6      1      8     4 180.0000000   4.6024000    2
     1      3      2      9     4 180.0000000   4.6024000    2
     2      4      3     10     4 180.0000000   4.6024000    2
     3      5      4     11     4 180.0000000   4.6024000    2
     4      6      5     12     4 180.0000000   4.6024000    2
     1      5      6     13     4 180.0000000   4.6024000    2
     3      7     10     15     4 180.0000000   4.6024000    2
     4     14     11     16     4 180.0000000   4.6024000    2
    11     15     14     17     4 180.0000000   4.6024000    2
    10     14     15     18     4 180.0000000   4.6024000    2
; improper (15, 19, 18, 20) omitted from [ dihedrals ] because no torsion terms are assigned
; improper (15, 19, 18, 21) omitted from [ dihedrals ] because no torsion terms are assigned
; improper (15, 20, 18, 21) omitted from [ dihedrals ] because no torsion terms are assigned
; improper (19, 20, 18, 21) omitted from [ dihedrals ] because no torsion terms are assigned
; improper (18, 22, 19, 23) omitted from [ dihedrals ] because no torsion terms are assigned
; improper (18, 22, 19, 24) omitted from [ dihedrals ] because no torsion terms are assigned
; improper (18, 23, 19, 24) omitted from [ dihedrals ] because no torsion terms are assigned
; improper (22, 23, 19, 24) omitted from [ dihedrals ] because no torsion terms are assigned
    19     25     24     26     4 180.0000000   4.6024000    2

[ system ]
; Name
corr2

[ molecules ]
; Compound       #mols
MOL                 1

