corr2
   27
    1MOL     C1    1  -0.340  -0.157   0.005
    1MOL     C2    2  -0.211  -0.152   0.052
    1MOL     C3    3  -0.136  -0.032   0.043
    1MOL     C4    4  -0.195   0.083  -0.015
    1MOL     C5    5  -0.329   0.075  -0.061
    1MOL     C6    6  -0.400  -0.042  -0.051
    1MOL     H7    7   0.040  -0.114   0.137
    1MOL     H8    8  -0.397  -0.249   0.012
    1MOL     H9    9  -0.164  -0.240   0.095
    1MOL    C10   10  -0.002  -0.025   0.089
    1MOL    C11   11  -0.117   0.201  -0.025
    1MOL    H12   12  -0.375   0.164  -0.105
    1MOL    H13   13  -0.503  -0.047  -0.087
    1MOL    C14   14   0.013   0.204   0.019
    1MOL    C15   15   0.074   0.088   0.075
    1MOL    H16   16  -0.162   0.290  -0.068
    1MOL    H17   17   0.070   0.296   0.012
    1MOL    C18   18   0.221   0.091   0.114
    1MOL    C19   19   0.319   0.058  -0.001
    1MOL    H20   20   0.238   0.019   0.196
    1MOL    H21   21   0.247   0.190   0.153
    1MOL    H22   22   0.422   0.063   0.036
    1MOL    H23   23   0.307   0.129  -0.083
    1MOL    C24   24   0.297  -0.080  -0.058
    1MOL    O25   25   0.230  -0.107  -0.155
    1MOL    O26   26   0.360  -0.176   0.013
    1MOL    H27   27   0.337  -0.260  -0.029
   1.42428   1.05590   0.85080
