corr
   22
    1MOL     C1    1  -0.234   0.015  -0.024
    1MOL     C2    2  -0.101   0.021  -0.066
    1MOL     C3    3  -0.031   0.141  -0.067
    1MOL     C4    4  -0.092   0.259  -0.025
    1MOL     C5    5  -0.224   0.254   0.018
    1MOL     C6    6  -0.294   0.135   0.019
    1MOL     C7    7  -0.310  -0.114  -0.023
    1MOL     C8    8  -0.250  -0.233  -0.065
    1MOL     C9    9  -0.320  -0.353  -0.064
    1MOL    C10   10  -0.452  -0.357  -0.022
    1MOL    C11   11  -0.513  -0.240   0.021
    1MOL    C12   12  -0.443  -0.120   0.020
    1MOL    H13   13  -0.049  -0.068  -0.100
    1MOL    H14   14   0.073   0.142  -0.101
    1MOL    H15   15  -0.037   0.352  -0.025
    1MOL    H16   16  -0.273   0.345   0.051
    1MOL    H17   17  -0.397   0.136   0.053
    1MOL    H18   18  -0.147  -0.235  -0.099
    1MOL    H19   19  -0.271  -0.444  -0.098
    1MOL    H20   20  -0.507  -0.451  -0.021
    1MOL    H21   21  -0.616  -0.241   0.054
    1MOL    H22   22  -0.494  -0.031   0.054
   1.18887   1.30324   0.65495
