; File corr.top was generated by MAPLE parmfit
; This is a standalone topology file
[ defaults ]
; nbfunc        comb-rule       gen-pairs       fudgeLJ fudgeQQ
1               2               yes             0.5     0.83333333

[ atomtypes ]
; name    at.num    mass    charge ptype  sigma      epsilon
cp              6   12.011000  0.00000000  A    0.33152123     0.4133792
ca              6   12.011000  0.00000000  A    0.33152123     0.4133792
ha              1    1.008000  0.00000000  A    0.26254785     0.0673624

[ moleculetype ]
; Name            nrexcl
MOL             3

[ atoms ]
; nr       type  resnr residue  atom   cgnr    charge       mass
; residue    1 MOL rtp MOL q 0.0
    1         cp      1     MOL     C1      1  -0.03700000   12.011000
    2         ca      1     MOL     C2      2  -0.10100000   12.011000
    3         ca      1     MOL     C3      3  -0.11300000   12.011000
    4         ca      1     MOL     C4      4  -0.11000000   12.011000
    5         ca      1     MOL     C5      5  -0.11300000   12.011000
    6         ca      1     MOL     C6      6  -0.10100000   12.011000
    7         cp      1     MOL     C7      7  -0.03700000   12.011000
    8         ca      1     MOL     C8      8  -0.10100000   12.011000
    9         ca      1     MOL     C9      9  -0.11300000   12.011000
   10         ca      1     MOL    C10     10  -0.11000000   12.011000
   11         ca      1     MOL    C11     11  -0.11300000   12.011000
   12         ca      1     MOL    C12     12  -0.10100000   12.011000
   13         ha      1     MOL    H13     13  0.11700000    1.008000
   14         ha      1     MOL    H14     14  0.11400000    1.008000
   15         ha      1     MOL    H15     15  0.11300000    1.008000
   16         ha      1     MOL    H16     16  0.11400000    1.008000
   17         ha      1     MOL    H17     17  0.11700000    1.008000
   18         ha      1     MOL    H18     18  0.11700000    1.008000
   19         ha      1     MOL    H19     19  0.11400000    1.008000
   20         ha      1     MOL    H20     20  0.11300000    1.008000
   21         ha      1     MOL    H21     21  0.11400000    1.008000
   22         ha      1     MOL    H22     22  0.11700000    1.008000

[ bonds ]
; ai     aj funct         c0         c1
     1      2     1     0.14002 322373.728069
     1      6     1     0.14002 322354.416060
     1      7     1     0.14945 207655.246244
     2      3     1     0.13882 352376.589299
     2     13     1     0.10844 328219.913397
     3      4     1     0.13896 353646.031597
     3     14     1     0.10865 329449.263062
     4      5     1     0.13896 353675.942213
     4     15     1     0.10849 333793.344934
     5      6     1     0.13882 352381.376745
     5     16     1     0.10865 329435.764568
     6     17     1     0.10844 328228.163443
     7      8     1     0.14002 322368.839214
     7     12     1     0.14002 322344.636507
     8      9     1     0.13882 352385.587070
     8     18     1     0.10844 328205.084151
     9     10     1     0.13896 353637.034841
     9     19     1     0.10865 329454.202322
    10     11     1     0.13896 353679.736337
    10     20     1     0.10849 333787.572952
    11     12     1     0.13882 352387.006015
    11     21     1     0.10865 329438.450208
    12     22     1     0.10844 328224.285068

[ pairs ]
; ai     aj funct
     1      4     1
     1      9     1
     1     11     1
     1     14     1
     1     16     1
     1     18     1
     1     22     1
     2      5     1
     2      8     1
     2     12     1
     2     15     1
     2     17     1
     3      6     1
     3      7     1
     3     16     1
     4     13     1
     4     17     1
     5      7     1
     5     14     1
     6      8     1
     6     12     1
     6     13     1
     6     15     1
     7     10     1
     7     13     1
     7     17     1
     7     19     1
     7     21     1
     8     11     1
     8     20     1
     8     22     1
     9     12     1
     9     21     1
    10     18     1
    10     22     1
    11     19     1
    12     18     1
    12     20     1
    13     14     1
    14     15     1
    15     16     1
    16     17     1
    18     19     1
    19     20     1
    20     21     1
    21     22     1

[ angles ]
; ai     aj     ak funct         c0         c1
     2      1      6     1  117.338533   1011.711934
     2      1      7     1  121.330449    718.247114
     6      1      7     1  121.331018    718.261015
     1      2      3     1  121.388622    929.934499
     1      2     13     1  120.682015    296.091811
     3      2     13     1  117.929363    298.223116
     2      3      4     1  120.435434    979.002439
     2      3     14     1  119.494823    290.961660
     4      3     14     1  120.069743    291.125637
     3      4      5     1  119.013151    959.434408
     3      4     15     1  120.493516    291.698178
     5      4     15     1  120.493333    291.695423
     4      5      6     1  120.436670    978.972478
     4      5     16     1  120.069869    291.128960
     6      5     16     1  119.493461    290.967200
     1      6      5     1  121.387589    929.938041
     1      6     17     1  120.681268    296.091361
     5      6     17     1  117.931143    298.220271
     1      7      8     1  121.330926    718.246617
     1      7     12     1  121.330646    718.264545
     8      7     12     1  117.338428   1011.726931
     7      8      9     1  121.388246    929.926669
     7      8     18     1  120.682518    296.098280
     9      8     18     1  117.929236    298.228155
     8      9     10     1  120.436234    979.004336
     8      9     19     1  119.494688    290.959177
    10      9     19     1  120.069078    291.124888
     9     10     11     1  119.012392    959.434829
     9     10     20     1  120.493962    291.700037
    11     10     20     1  120.493645    291.696110
    10     11     12     1  120.437132    978.961495
    10     11     21     1  120.070495    291.126803
    12     11     21     1  119.492373    290.964933
     7     12     11     1  121.387568    929.946689
     7     12     22     1  120.680850    296.094800
    11     12     22     1  117.931583    298.222890

[ dihedrals ]
; ai     aj     ak     al funct         c0         c1    mult
     3      2      1      6     1 180.0000000  15.1670000    2
     6      1      2     13     1 180.0000000  15.1670000    2
     3      2      1      7     1 180.0000000  15.1670000    2
     7      1      2     13     1 180.0000000  15.1670000    2
     2      1      6      5     1 180.0000000  15.1670000    2
     2      1      6     17     1 180.0000000  15.1670000    2
     5      6      1      7     1 180.0000000  15.1670000    2
     7      1      6     17     1 180.0000000  15.1670000    2
     2      1      7      8     1 180.0000000   2.9242212    2
     2      1      7     12     1 180.0000000   2.9692419    2
     6      1      7      8     1 180.0000000   2.9696822    2
     6      1      7     12     1 180.0000000   3.0162374    2
     1      2      3      4     1 180.0000000  15.1670000    2
     1      2      3     14     1 180.0000000  15.1670000    2
     4      3      2     13     1 180.0000000  15.1670000    2
    13      2      3     14     1 180.0000000  15.1670000    2
     2      3      4      5     1 180.0000000  15.1670000    2
     2      3      4     15     1 180.0000000  15.1670000    2
     5      4      3     14     1 180.0000000  15.1670000    2
    14      3      4     15     1 180.0000000  15.1670000    2
     3      4      5      6     1 180.0000000  15.1670000    2
     3      4      5     16     1 180.0000000  15.1670000    2
     6      5      4     15     1 180.0000000  15.1670000    2
    15      4      5     16     1 180.0000000  15.1670000    2
     1      6      5      4     1 180.0000000  15.1670000    2
     4      5      6     17     1 180.0000000  15.1670000    2
     1      6      5     16     1 180.0000000  15.1670000    2
    16      5      6     17     1 180.0000000  15.1670000    2
     1      7      8      9     1 180.0000000  15.1670000    2
     1      7      8     18     1 180.0000000  15.1670000    2
     9      8      7     12     1 180.0000000  15.1670000    2
    12      7      8     18     1 180.0000000  15.1670000    2
     1      7     12     11     1 180.0000000  15.1670000    2
     1      7     12     22     1 180.0000000  15.1670000    2
     8      7     12     11     1 180.0000000  15.1670000    2
     8      7     12     22     1 180.0000000  15.1670000    2
     7      8      9     10     1 180.0000000  15.1670000    2
     7      8      9     19     1 180.0000000  15.1670000    2
    10      9      8     18     1 180.0000000  15.1670000    2
    18      8      9     19     1 180.0000000  15.1670000    2
     8      9     10     11     1 180.0000000  15.1670000    2
     8      9     10     20     1 180.0000000  15.1670000    2
    11     10      9     19     1 180.0000000  15.1670000    2
    19      9     10     20     1 180.0000000  15.1670000    2
     9     10     11     12     1 180.0000000  15.1670000    2
     9     10     11     21     1 180.0000000  15.1670000    2
    12     11     10     20     1 180.0000000  15.1670000    2
    20     10     11     21     1 180.0000000  15.1670000    2
     7     12     11     10     1 180.0000000  15.1670000    2
    10     11     12     22     1 180.0000000  15.1670000    2
     7     12     11     21     1 180.0000000  15.1670000    2
    21     11     12     22     1 180.0000000  15.1670000    2
     2      6      1      7     4 180.0000000   4.6024000    2
     1      3      2     13     4 180.0000000   4.6024000    2
     2      4      3     14     4 180.0000000   4.6024000    2
     3      5      4     15     4 180.0000000   4.6024000    2
     4      6      5     16     4 180.0000000   4.6024000    2
     1      5      6     17     4 180.0000000   4.6024000    2
     1      8      7     12     4 180.0000000   4.6024000    2
     7      9      8     18     4 180.0000000   4.6024000    2
     8     10      9     19     4 180.0000000   4.6024000    2
     9     11     10     20     4 180.0000000   4.6024000    2
    10     12     11     21     4 180.0000000   4.6024000    2
     7     11     12     22     4 180.0000000   4.6024000    2

[ system ]
; Name
corr

[ molecules ]
; Compound       #mols
MOL                 1

