; NVT (canonical) ensemble - Constant N, V, T
; MAPLE MD template - Langevin or V-rescale thermostat

integrator  = md
ensemble    = nvt

timestep    = 0.1        ; fs
steps       = 100000     ; steps (= 10 ps)

temperature = 300.0      ; K
thermostat  = langevin   ; langevin or v-rescale

friction    = 0.001      ; 1/fs (Langevin only)
; tau_t     = 100.0      ; fs (V-rescale only)

traj_every  = 100
log_every   = 100
traj_format = xyz

init_velocities = yes
restart     = no
rst_every   = 1000
