default_name
 71738
  29.9097257  20.4521068  56.9577534  29.3157257  20.2661068  57.7527534
  30.8197257  20.0311068  57.0797534  29.4597257  20.0451068  56.1507534
  30.0577257  21.9051068  56.7217534  29.2367257  22.4821068  57.1457534
  31.2757257  22.6051068  57.3877534  31.3957257  23.6381068  57.0597534
  31.0247257  22.5881068  58.9337534  30.9997257  21.5761068  59.3367534
  30.0857257  23.1031068  59.1347534  31.8317257  23.1361068  59.4207534
  32.3917257  21.8361068  57.0307534  33.1797257  22.3371068  57.2537534
  30.0407257  22.0731068  55.2117534  30.4387257  21.2371068  54.4167534
  29.5397257  23.2781068  54.8607534  29.2087257  23.9931068  55.4977534
  29.4007257  23.7541068  53.4697534  28.9487257  24.7451068  53.5207534
  30.8447257  23.9461068  52.8937534  31.0467257  22.9621068  52.4697534
  30.8757257  24.6211068  52.0387534  31.9937257  24.2281068  53.8017534
  32.3527257  25.3231068  54.5837534  31.9927257  26.2661068  54.6127534
  33.5397257  25.1091068  55.1337534  34.1947257  25.8691068  55.5327534
  33.9227257  23.8451068  54.8917534  32.9217257  23.3221068  54.0727534
  32.9117257  22.3401068  53.6227534  28.5697257  22.9471068  52.4717534
  28.2147257  23.4181068  51.4227534  28.0937257  21.7761068  52.8467534
  28.3277257  21.4021068  53.7587534  27.2127257  21.0731068  51.9107534
  27.5927257  21.1631068  50.8927534  27.3057257  19.5091068  52.1327534
  26.6537257  19.0491068  51.3897534  28.3297257  19.1371068  52.1097534
  26.7527257  19.1401068  53.4887534  25.9027257  19.8001068  53.6657534
  26.3577257  18.1271068  53.5627534  27.7307257  19.1451068  54.6387534
  27.6327257  19.9661068  55.5667534  28.7247257  18.4181068  54.6087534
  25.7667257  21.7071068  51.7357534  25.2157257  21.7361068  50.6407534
  25.1387257  22.3061068  52.7527534  25.6347257  22.3451068  53.6347534
  23.8277257  22.9761068  52.6637534  23.1667257  22.3061068  52.1127534
  23.2547257  23.4491068  54.0337534  23.7917257  24.2041068  54.6077534
  23.3057257  22.6391068  54.7617534  22.2047257  23.7411068  53.9977534
  23.8887257  24.2451068  51.7957534  22.9117257  24.5231068  51.1477534
  25.0227257  24.9721068  51.7777534  25.7207257  24.6821068  52.4517534
  25.2597257  26.0661068  50.8447534  24.4337257  26.7471068  51.0507534
  26.6107257  26.6991068  51.3077534  26.3767257  27.1331068  52.2797534
  27.3257257  25.8761068  51.3147534  27.2827257  27.6291068  50.3297534
  26.8197257  28.9721068  50.1937534  25.9237257  29.2641068  50.7227534
  27.4257257  29.8591068  49.3217534  26.9807257  30.8431068  49.3527534
  28.5187257  29.4421068  48.5747534  29.0257257  30.1751068  47.9657534
  28.9787257  28.1311068  48.6017534  29.7547257  27.7271068  47.9677534
  28.4167257  27.2391068  49.5627534  28.7967257  26.2381068  49.7007534
  25.2307257  25.7081068  49.3577534  24.7047257  26.4481068  48.5687534
  25.8037257  24.5531068  49.0087534  26.1867257  23.9351068  49.7147534
  25.8647257  24.0381068  47.6777534  26.1817257  24.8321068  47.0017534
  26.9147257  22.9421068  47.5687534  26.7847257  22.2721068  48.4197534
  26.7917257  22.4541068  46.6017534  28.3347257  23.4771068  47.6877534
  28.4447257  24.1371068  48.5487534  29.4287257  22.4561068  47.8487534
  29.5887257  21.9091068  46.9197534  29.0627257  21.7351068  48.5807534
  30.3017257  22.8881068  48.3367534  28.7627257  24.2601068  46.4397534
  28.2207257  25.2051068  46.4877534  29.8057257  24.5701068  46.3697534
  28.4487257  23.6381068  45.6007534  24.5027257  23.4321068  47.2387534
  24.1317257  23.5841068  46.1147534  23.7647257  22.7441068  48.1137534
  24.1977257  22.6271068  49.0227534  22.3787257  22.3951068  47.9197534
  22.2767257  21.7081068  47.0797534  21.9047257  21.5711068  49.1427534
  22.5107257  20.6921068  49.3607534  22.1677257  22.2161068  49.9807534
  20.3957257  21.2151068  49.1757534  19.8347257  22.1501068  49.1707534
  20.0547257  20.4731068  48.4547534  20.0857257  20.6921068  50.5657534
  20.9387257  20.8461068  51.4847534  18.9517257  20.2661068  50.8607534
  21.4907257  23.6531068  47.6147534  20.7047257  23.5871068  46.6857534
  21.6747257  24.7471068  48.3227534  22.1787257  24.7561068  49.2017534
  20.9827257  26.0021068  48.0667534  19.9257257  25.7971068  47.8987534
  21.1317257  26.9831068  49.2527534  20.7247257  26.4811068  50.1307534
  22.1777257  27.0931068  49.5417534  20.3397257  28.6051068  49.0697534
  21.3597257  26.5441068  46.7047534  20.4787257  26.7301068  45.8547534
  22.6907257  26.7631068  46.4607534  23.3147257  26.5181068  47.2207534
  23.1097257  27.4741068  45.2967534  22.4787257  28.3381068  45.0867534
  24.5457257  27.9271068  45.3857534  24.6297257  28.5861068  46.2507534
  25.2027257  27.0831068  45.5957534  25.0537257  28.6941068  44.1667534
  24.9847257  28.0081068  43.3217534  24.4237257  30.0261068  43.9187534
  24.9667257  30.5651068  43.1427534  24.4807257  30.5811068  44.8547534
  23.3527257  30.0151068  43.7167534  26.5107257  29.0361068  44.5137534
  26.6167257  29.4771068  45.5047534  27.1577257  28.1611068  44.4447534
  26.9687257  29.7821068  43.8637534  22.7947257  26.6861068  43.9667534
  22.2837257  27.3221068  43.0527534  22.8857257  25.3481068  43.9517534
  23.3517257  25.0241068  44.7917534  22.5307257  24.5361068  42.8337534
  23.0837257  24.7911068  41.9297534  22.8667257  23.0871068  43.1937534
  22.3007257  22.8081068  44.0827534  22.6507257  22.0941068  42.0207534
  23.4607257  21.3671068  41.9607534  22.5937257  22.6251068  41.0707534
  21.6607257  21.6481068  42.1167534  24.2387257  22.9821068  43.4867534
  24.1977257  23.0151068  44.4457534  21.0337257  24.6021068  42.4567534
  20.7487257  24.3751068  41.2807534  20.1567257  24.8371068  43.4157534
  20.4527257  24.9581068  44.3767534  18.6537257  24.8711068  43.2177534
  18.4727257  24.3381068  42.2847534  17.9317257  24.1061068  44.3907534
  16.8487257  24.1141068  44.2707534  18.3087257  22.6521068  44.4317534
  17.8467257  22.2321068  43.5387534  17.7987257  22.2011068  45.2827534
  19.3607257  22.3791068  44.5167534  18.2657257  24.6561068  45.6547534
  19.1787257  24.7011068  45.9487534  18.1097257  26.3071068  43.0757534
  17.0867257  26.5071068  42.4417534  18.7947257  27.3261068  43.5487534
  19.5737257  27.2661068  44.1937534  18.4227257  28.7291068  43.1917534
  17.3887257  28.9791068  43.4277534  19.2667257  29.7411068  44.1027534
  20.2627257  29.3051068  44.1787534  19.3227257  30.6801068  43.5517534
  18.7477257  29.9251068  45.5397534  18.4947257  28.9971068  46.0517534
  19.6157257  30.2691068  46.1017534  17.6827257  30.9681068  45.6607534
  17.8797257  31.6601068  46.4797534  17.6637257  31.5841068  44.7617534
  16.4027257  30.2641068  45.7787534  16.3677257  29.4191068  46.3307534
  15.3477257  30.5231068  45.1197534  15.1227257  31.4871068  44.2117534
  15.8257257  32.1941068  44.0517534  14.2187257  31.4331068  43.7647534
  14.3727257  29.7791068  45.4647534  14.5437257  29.2471068  46.3067534
  13.4167257  29.8601068  45.1477534  18.5827257  29.1201068  41.7147534
  17.8047257  29.8781068  41.1077534  19.6047257  28.5561068  41.2077534
  20.1697257  27.9901068  41.8307534  19.9767257  28.7261068  39.7817534
  20.0007257  29.8161068  39.7797534  21.3947257  28.1701068  39.5737534
  21.4247257  27.2231068  40.1127534  21.6787257  27.9261068  38.1107534
  22.6977257  27.5891068  37.9197534  21.5947257  28.8771068  37.5847534
  20.9527257  27.2301068  37.6897534  22.4237257  29.1011068  40.2337534
  22.6147257  30.0031068  39.6527534  22.0427257  29.4461068  41.1947534
  23.7857257  28.4611068  40.4207534  23.6767257  27.6411068  41.1297534
  24.5367257  29.1971068  40.7087534  24.0947257  27.9961068  39.4837534
  18.8667257  28.1301068  38.9017534  18.4137257  27.0031068  39.1447534
  18.3857257  28.8361068  37.8197534  18.5807257  30.2231068  37.4577534
  19.3107257  30.0441068  36.6587534  18.9837257  30.8311068  38.2767534
  17.3167257  30.7141068  36.8017534  17.5017257  31.5231068  36.0947534
  16.6177257  31.0421068  37.5707534  16.6437257  29.5251068  36.2867534
  17.0087257  29.5051068  35.2597534  15.5557257  29.5861068  36.2457534
  17.1547257  28.3501068  37.1307534  16.3617257  28.1621068  37.8547534
  17.3237257  27.1441068  36.2747534  18.4467257  26.9841068  35.7897534
  16.3067257  26.2671068  35.9747534  15.4777257  26.4031068  36.5407534
  16.4067257  25.3481068  34.7967534  17.1657257  24.5751068  34.9207534
  15.0167257  24.6681068  34.4937534  14.2727257  25.3881068  34.1527534
  15.1077257  23.8451068  33.7847534  14.4597257  24.1251068  35.6807534
  14.8787257  23.2611068  35.6957534  16.7787257  26.0161068  33.5087534
  17.6857257  25.5601068  32.7367534  16.1337257  27.1501068  33.2247534
  15.3577257  27.3291068  33.8507534  16.1797257  27.7431068  31.9077534
  16.1967257  26.9401068  31.1707534  14.8117257  28.4581068  31.6297534
  14.7497257  28.8201068  30.6037534  14.1287257  27.6331068  31.8337534
  14.6337257  29.6441068  32.6107534  15.5387257  30.2871068  33.1057534
  13.4487257  30.0821068  32.7777534  12.7577257  29.5061068  32.3127534
  13.2917257  30.7501068  33.5237534  17.4867257  28.6071068  31.6007534
  17.5897257  29.4081068  30.6877534  18.4817257  28.4061068  32.4817534
  18.3647257  27.6221068  33.1127534  19.8197257  29.0211068  32.4757534
  19.6177257  30.0891068  32.3937534  20.5267257  28.6781068  33.8147534
  19.9807257  29.2851068  34.5367534  20.4177257  27.6021068  33.9557534
  21.7957257  29.2311068  33.5797534  22.3057257  28.4511068  33.8107534
  20.6237257  28.5191068  31.2587534  20.5807257  27.3831068  30.8207534
  21.4317257  29.4411068  30.6967534  21.4097257  30.3981068  31.0277534
  22.4147257  29.0581068  29.6127534  21.9257257  28.4651068  28.8387534
  22.8987257  30.3071068  28.9027534  23.3607257  30.8891068  29.6997534
  24.0257257  29.9801068  27.8577534  24.5777257  30.8931068  27.6337534
  23.6747257  29.4621068  26.9657534  24.7817257  29.3791068  28.3647534
  21.9147257  30.9541068  28.1467534  22.4467257  31.6021068  27.6787534
  23.5037257  28.1601068  30.1517534  23.8667257  27.1581068  29.5687534
  24.0297257  28.5331068  31.3277534  23.5557257  29.2121068  31.9107534
  25.0967257  27.7941068  32.0417534  25.6357257  27.1711068  31.3277534
  26.1277257  28.8411068  32.5567534  25.5547257  29.4841068  33.2247534
  26.9597257  28.3941068  33.1007534  26.6337257  29.7981068  31.4437534
  26.1087257  31.0981068  31.3567534  25.6067257  31.5781068  32.1827534
  26.2697257  31.9311068  30.1967534  25.8527257  32.9251068  30.1277534
  27.0477257  31.4651068  29.1777534  27.1477257  32.0991068  28.3097534
  27.7027257  30.1971068  29.3217534  28.3867257  29.8541068  28.5597534
  27.5227257  29.4071068  30.4317534  27.9407257  28.4111068  30.4647534
  24.5827257  26.9631068  33.1877534  23.6697257  27.3551068  33.9057534
  25.1657257  25.7601068  33.3607534  25.9577257  25.6061068  32.7477534
  24.8387257  24.7431068  34.3977534  23.7627257  24.5881068  34.4727534
  25.2457257  23.3451068  33.8327534  24.5737257  23.1101068  33.0067534
  26.6567257  23.2381068  33.3047534  27.1217257  22.2841068  33.5537534
  27.2547257  24.0561068  33.7087534  26.6467257  23.4091068  32.2287534
  25.1287257  22.3631068  34.7627534  25.2617257  21.5201068  34.3227534
  25.4077257  25.0141068  35.7437534  26.6007257  25.4371068  35.7367534
  24.8087257  24.6301068  36.8977534  23.3977257  24.1751068  37.0937534
  23.2697257  23.1151068  36.8427534  22.6707257  24.9251068  36.7577534
  23.1807257  24.2871068  38.5947534  22.3527257  23.6931068  38.9797534
  22.8907257  25.3271068  38.7417534  24.4837257  23.7851068  39.1417534
  24.5817257  22.7391068  38.8507534  24.6357257  23.8811068  40.2167534
  25.4467257  24.5771068  38.2437534  25.4897257  25.5901068  38.6437534
  26.7857257  23.9581068  38.2157534  27.6497257  24.4441068  38.9027534
  26.9877257  22.8181068  37.5087534  26.2077257  22.4791068  36.9577534
  28.2847257  22.0661068  37.4207534  28.6977257  22.1271068  38.4277534
  27.8737257  20.6021068  37.0867534  27.1247257  20.2591068  37.8007534
  27.3617257  20.6091068  36.1247534  29.0127257  19.5711068  37.1437534
  28.5387257  18.6201068  36.9017534  29.7997257  19.6901068  36.3987534
  29.6307257  19.3841068  38.5177534  29.2057257  19.8871068  39.5387534
  30.8347257  18.8071068  38.4927534  31.1327257  18.5391068  39.4227534
  31.2957257  18.5141068  37.6397534  29.2997257  22.6611068  36.4877534
  30.1347257  21.9361068  35.9817534  29.1707257  23.9831068  36.1977534
  28.3357257  24.4221068  36.5657534  30.1147257  24.8881068  35.5477534
  31.1147257  24.4711068  35.6727534  29.8447257  25.0071068  34.0117534
  29.7047257  24.0321068  33.5457534  28.9747257  25.6081068  33.7467534
  30.9337257  25.5371068  33.3197534  31.5787257  24.8311068  33.2347534
  30.1617257  26.3251068  36.1727534  31.2467257  26.9561068  36.3197534
  29.0117257  26.8661068  36.6247534  28.1427257  26.4161068  36.3617534
  28.9297257  28.0011068  37.5097534  29.5177257  28.7501068  36.9787534
  27.5057257  28.4351068  37.7277534  27.0087257  27.5461068  38.1167534
  27.4247257  29.4941068  38.8367534  27.8277257  29.1891068  39.8027534
  26.3787257  29.7221068  39.0437534  27.9207257  30.4281068  38.5727534
  26.7797257  28.9231068  36.4217534  27.1757257  29.9101068  36.1847534
  27.0287257  28.2481068  35.6027534  25.3217257  28.9261068  36.6527534
  25.0227257  27.9111068  36.9147534  24.7687257  29.2621068  35.7757534
  25.0897257  29.7441068  37.3347534  29.6417257  27.7621068  38.8597534
  30.3127257  28.6851068  39.2957534  29.5277257  26.6021068  39.4077534
  29.0077257  25.9471068  38.8357534  30.3217257  26.1761068  40.6347534
  30.7677257  27.1051068  40.9887534  29.3927257  25.6471068  41.7037534
  29.0547257  24.6631068  41.3797534  30.0807257  25.4491068  43.0827534
  30.2457257  26.3721068  43.6377534  31.0887257  25.0551068  42.9507534
  29.3597257  24.8661068  43.6557534  28.0967257  26.4521068  41.9637534
  28.4377257  27.3841068  42.4127534  27.6117257  26.7661068  41.0387534
  26.9497257  25.7191068  42.7527534  26.8287257  24.6671068  42.4927534
  26.0597257  26.2831068  42.4727534  27.0717257  25.7381068  43.8357534
  31.4147257  25.1251068  40.1947534  31.1567257  24.3581068  39.3217534
  32.5167257  25.1921068  40.8887534  32.6327257  25.8951068  41.6087534
  33.6467257  24.2511068  40.8507534  33.3517257  23.2751068  40.4647534
  34.6327257  24.8271068  39.8247534  34.2347257  24.9361068  38.8147534
  34.7867257  25.8711068  40.0947534  35.9907257  24.1981068  39.5987534
  36.0307257  22.9381068  38.9707534  35.1657257  22.4531068  38.5437534
  37.2847257  22.3221068  38.6947534  37.1767257  21.4301068  38.0957534
  38.4457257  22.9341068  39.0967534  39.6047257  22.4051068  38.7427534
  39.6107257  21.4581068  38.8967534  38.4217257  24.1901068  39.7877534
  39.3547257  24.6811068  40.0207534  37.2057257  24.8191068  39.9937534
  37.2907257  25.8541068  40.2907534  34.1597257  23.9811068  42.3297534
  34.0127257  24.8951068  43.1297534  34.4917257  22.7791068  42.6247534
  34.7387257  22.1221068  41.8947534  34.6517257  22.2111068  44.0447534
  34.6787257  23.0441068  44.7477534  33.3507257  21.3971068  44.3717534
  33.5977257  20.7811068  45.2357534  32.0397257  22.3031068  44.6417534
  31.2017257  21.8101068  45.1347534  31.6417257  22.5531068  43.6587534
  32.2607257  23.2711068  45.0917534  33.0487257  20.6191068  43.2237534
  33.4307257  19.7571068  43.4017534  35.8747257  21.2381068  44.0887534
  36.2117257  20.7691068  42.9707534  36.4687257  20.8501068  45.2767534
  36.0327257  21.3461068  46.5997534  34.9527257  21.2171068  46.7407534
  36.1847257  22.4261068  46.7167534  36.8047257  20.5611068  47.6767534
  36.2787257  19.6271068  47.8737534  37.0887257  21.1091068  48.5747534
  38.0977257  20.2601068  46.9467534  38.5247257  19.3731068  47.4147534
  38.7567257  21.1281068  46.9647534  37.7317257  20.0801068  45.4307534
  38.5367257  20.5041068  44.8307534  37.6987257  18.5521068  45.0977534
  38.7307257  17.9251068  44.9747534  36.5437257  17.9811068  44.8967534
  35.7037257  18.5181068  45.0747534  36.3677257  16.5881068  44.5017534
  37.0617257  15.9291068  45.0217534  34.8427257  16.1601068  44.8487534
  34.5567257  15.2391068  44.3407534  34.7737257  15.9601068  45.9177534
  33.7827257  17.1841068  44.5007534  32.6557257  16.9771068  44.9937534
  33.9887257  18.1871068  43.7327534  36.5477257  16.3961068  42.9777534
  36.6997257  15.2741068  42.5867534  36.5447257  17.4711068  42.1797534
  36.3017257  18.4101068  42.4707534  36.9407257  17.4341068  40.8177534
  36.4067257  16.6191068  40.3297534  36.7267257  18.7961068  40.1007534
  37.2587257  19.6361068  40.5477534  37.1067257  18.8241068  39.0797534
  35.2367257  19.1371068  39.9867534  34.5877257  18.6101068  39.1477534
  34.7837257  20.1231068  40.7387534  35.3297257  20.3981068  41.5467534
  33.7877257  20.3061068  40.7587534  38.4687257  17.1741068  40.6997534
  39.3317257  17.8751068  41.3437534  38.8807257  16.1951068  39.8727534
  38.0877257  15.1391068  39.1577534  37.4707257  15.5641068  38.3557534
  37.4217257  14.6031068  39.8457534  39.1857257  14.1401068  38.5777534
  38.9347257  13.7781068  37.5807534  39.2847257  13.2201068  39.1547534
  40.4467257  14.9561068  38.6007534  40.4367257  15.4911068  37.6507534
  41.4167257  14.4691068  38.4997534  40.3067257  15.8451068  39.8297534
  40.5617257  15.2771068  40.7247534  41.3877257  16.9251068  39.6557534
  42.4357257  16.7141068  40.2757534  41.2317257  18.0481068  38.9297534
  40.3427257  18.1941068  38.4657534  42.1127257  19.2071068  38.7217534
  43.1567257  19.0201068  38.4727534  41.5697257  19.7571068  37.4167534
  42.0337257  20.7091068  37.1587534  41.7737257  19.0611068  36.6027534
  40.1757257  19.9671068  37.3717534  39.6837257  19.1661068  37.1787534
  42.1247257  20.2641068  39.8377534  43.0157257  21.0851068  39.7697534
  41.1257257  20.3171068  40.7887534  40.3757257  19.6471068  40.9087534
  41.1117257  21.4901068  41.6417534  40.6437257  22.3071068  41.0917534
  40.0227257  21.2921068  42.7187534  39.0987257  20.9881068  42.2267534
  40.2627257  20.4991068  43.4267534  39.5427257  22.5191068  43.5267534
  40.2077257  22.7891068  44.7387534  41.0727257  22.2451068  45.0877534
  39.6107257  23.6761068  45.6817534  40.0467257  23.8251068  46.6587534
  38.5007257  24.4121068  45.2827534  37.9907257  25.3531068  46.1157534
  38.3467257  25.1821068  46.9907534  38.0437257  24.2941068  43.9567534
  37.1857257  24.9141068  43.7397534  38.5247257  23.2831068  43.1147534
  38.1857257  23.1571068  42.0977534  42.4317257  21.7921068  42.4167534
  42.7927257  22.9921068  42.4797534  43.0707257  20.7021068  42.8967534
  42.6537257  19.8361068  42.5757534  44.2787257  20.7321068  43.6367534
  44.0447257  21.3791068  44.4827534  44.5487257  19.3591068  44.2717534
  45.1547257  19.4381068  45.1747534  43.5927257  18.9671068  44.6207534
  45.1467257  18.4851068  43.3587534  45.8107257  17.9931068  43.8467534
  45.4957257  21.2371068  42.7907534  46.3917257  21.8631068  43.3217534
  45.4747257  21.0681068  41.4437534  44.7807257  20.4091068  41.1117534
  46.4017257  21.6971068  40.4417534  47.4367257  21.6561068  40.7827534
  46.4117257  21.0651068  39.0177534  45.5677257  21.2081068  38.3427534
  47.6027257  21.5841068  38.2497534  47.6667257  22.6561068  38.4327534
  47.5207257  21.2521068  37.2147534  48.5097257  21.1911068  38.7107534
  46.5707257  19.7511068  39.1037534  45.6587257  19.4841068  39.2427534
  46.1027257  23.1931068  40.4337534  47.0217257  23.9691068  40.6807534
  44.8337257  23.6361068  40.1987534  44.1267257  22.9111068  40.2367534
  44.4057257  25.0491068  40.1017534  45.0297257  25.4921068  39.3257534
  42.9357257  25.2201068  39.5457534  42.2167257  24.7141068  40.1897534
  42.4287257  26.6391068  39.4947534  41.3977257  26.6351068  39.8487534
  42.5467257  27.1521068  38.5407534  42.9897257  27.3331068  40.1207534
  42.8597257  24.4031068  38.1887534  43.2307257  23.4081068  38.4367534
  41.8387257  24.2161068  37.8547534  43.6847257  24.9571068  37.0097534
  44.7357257  24.9391068  37.2987534  43.3897257  25.9461068  36.6587534
  43.5907257  24.3361068  36.1187534  44.7007257  25.9431068  41.3277534
  45.2637257  27.0141068  41.2007534  44.5767257  25.3161068  42.5607534
  44.1527257  24.3981068  42.6257534  44.9747257  25.9921068  43.8117534
  44.4437257  26.9351068  43.9387534  44.6287257  25.1061068  45.1077534
  45.2417257  24.2101068  45.2047534  44.9657257  25.7641068  45.9097534
  43.1547257  24.8231068  45.3577534  42.6947257  24.3691068  44.4797534
  42.9467257  23.9761068  46.6067534  43.1347257  22.9111068  46.4757534
  41.9517257  24.0661068  47.0437534  43.6747257  24.3351068  47.3347534
  42.3387257  26.1281068  45.6447534  42.8887257  26.7521068  46.3497534
  42.3607257  26.6561068  44.6917534  41.3347257  25.9341068  46.0207534
  46.5337257  26.2871068  43.9667534  46.9517257  27.2791068  44.5367534
  47.4047257  25.3771068  43.4477534  47.1007257  24.6521068  42.8097534
  48.8707257  25.6831068  43.3907534  49.1667257  25.9621068  44.4017534
  49.6617257  24.3881068  43.2127534  49.3177257  23.8691068  42.3187534
  50.6837257  24.7441068  43.0817534  49.5777257  23.4631068  44.4367534
  50.0927257  22.3221068  44.4007534  48.9917257  23.8131068  45.5317534
  49.1537257  26.6831068  42.3017534  49.7197257  27.7411068  42.6587534
  48.6187257  26.3861068  41.0937534  48.1877257  25.4891068  40.9077534
  48.8877257  27.1551068  39.8857534  49.9187257  26.9041068  39.6367534
  48.0217257  26.5481068  38.7977534  48.2707257  25.5001068  38.6257534
  46.9527257  26.6201068  38.9947534  48.2967257  27.1161068  37.5587534
  47.7657257  26.6581068  36.9037534  48.6077257  28.6851068  39.9517534
  49.1847257  29.5131068  39.2627534  47.6327257  29.0761068  40.7787534
  47.1917257  28.3281068  41.2997534  47.0967257  30.4771068  40.8937534
  47.3687257  31.1721068  40.0997534  45.5367257  30.5341068  40.9757534
  45.3387257  31.5041068  41.4307534  44.9987257  30.3401068  39.5807534
  43.9967257  29.9311068  39.7127534  45.5397257  29.5531068  39.0547534
  44.9617257  31.3081068  39.0807534  45.0917257  29.4221068  41.8057534
  45.2757257  28.5611068  41.4227534  47.6487257  31.1671068  42.1137534
  47.5107257  32.3771068  42.2327534  48.3367257  30.4821068  43.0667534
  48.6167257  29.5411068  42.8187534  48.9657257  31.1381068  44.1957534
  48.2777257  31.8951068  44.5737534  49.2277257  30.0711068  45.2047534
  49.7417257  29.2471068  44.7097534  50.0917257  30.6031068  46.3267534
  49.8687257  31.6451068  46.5567534  51.1387257  30.4061068  46.0967534
  49.9407257  30.0711068  47.2657534  47.9897257  29.7191068  45.8327534
  47.4467257  29.1181068  45.3167534  50.1487257  32.0091068  43.6997534
  51.1777257  31.5101068  43.2107534  50.0267257  33.3201068  43.7837534
  49.1207257  33.6421068  44.1037534  51.0047257  34.3081068  43.2607534
  51.4267257  33.9981068  42.3047534  50.4727257  35.6881068  43.0647534
  49.5637257  35.6121068  42.4687534  50.1437257  35.9541068  44.0697534
  51.4887257  36.7581068  42.5587534  51.1097257  37.7291068  42.2407534
  52.1357257  36.9911068  43.4047534  52.4327257  36.3221068  41.4377534
  53.6127257  36.5851068  41.4237534  51.9877257  35.6581068  40.4387534
  52.5617257  35.6101068  39.6057534  50.9877257  35.5421068  40.3307534
  52.3057257  34.2421068  44.0827534  53.3527257  34.4531068  43.4847534
  52.2867257  33.8681068  45.3777534  51.4147257  33.6591068  45.8497534
  53.5247257  33.6731068  46.1857534  54.3967257  34.0171068  45.6307534
  53.3957257  34.7061068  47.3557534  52.9967257  35.6901068  47.1077534
  52.6717257  34.3051068  48.0647534  54.6917257  34.7531068  48.1837534
  55.5407257  33.9121068  48.0797534  54.8337257  35.7871068  48.9937534
  54.1947257  36.5711068  49.0517534  55.7327257  35.8291068  49.4597534
  53.6677257  32.2241068  46.6147534  52.9587257  31.8121068  47.4907534
  54.6637257  31.4571068  46.0467534  55.4197257  31.7201068  44.8087534
  56.1527257  32.5221068  44.9617534  54.8577257  32.0201068  43.9157534
  56.1527257  30.4181068  44.4747534  57.1557257  30.7051068  44.1587534
  55.5847257  29.8831068  43.7147534  56.3337257  29.7621068  45.8487534
  57.1247257  30.2721068  46.3997534  56.4777257  28.6821068  45.8487534
  54.9487257  30.0771068  46.4607534  54.1577257  29.4391068  46.0667534
  55.1467257  29.7381068  47.9177534  54.8067257  28.5971068  48.2257534
  55.5247257  30.7691068  48.7017534  55.5447257  31.7011068  48.3057534
  55.5197257  30.6111068  50.1117534  56.2957257  29.9221068  50.4447534
  55.6767257  32.0481068  50.6687534  56.5587257  32.5271068  50.2427534
  54.7777257  32.5931068  50.3807534  55.7547257  32.1161068  52.2267534
  54.8557257  31.6241068  52.5967534  56.6437257  31.5431068  52.4887534
  55.7947257  33.5741068  52.7767534  56.7887257  34.0141068  52.6997534
  55.0627257  34.0731068  52.1417534  55.3707257  33.6781068  54.1827534
  55.0317257  32.8301068  54.6137534  55.0797257  34.7051068  54.9097534
  54.8887257  35.8781068  54.4457534  54.8987257  36.1441068  53.4717534
  54.5607257  36.5901068  55.0827534  54.7987257  34.5011068  56.1897534
  54.9497257  33.6081068  56.6367534  54.3167257  35.1981068  56.7397534
  54.2497257  30.0061068  50.6767534  54.3197257  29.2701068  51.6687534
  53.0147257  30.3751068  50.2087534  52.9757257  30.8361068  49.3077534
  51.8347257  29.8911068  50.8707534  52.0557257  29.8341068  51.9367534
  50.7457257  30.9551068  50.5537534  50.6717257  31.1121068  49.4777534
  49.7967257  30.5801068  50.9357534  51.0697257  32.3491068  51.2587534
  51.3487257  32.3831068  52.6417534  51.4737257  31.4791068  53.2187534
  51.7467257  33.6531068  53.1577534  51.8717257  33.7871068  54.2217534
  51.5477257  34.8891068  52.4597534  51.6817257  35.8681068  52.8947534
  51.1887257  34.8201068  51.0317534  51.0047257  35.7621068  50.5367534
  50.8467257  33.5621068  50.5357534  50.3237257  33.4611068  49.5957534
  51.4517257  28.3851068  50.4777534  50.5927257  27.9541068  51.1307534
  52.1407257  27.6531068  49.6537534  52.8687257  28.1391068  49.1437534
  52.0997257  26.1991068  49.5537534  51.0577257  25.8951068  49.4577534
  52.8617257  25.6061068  48.2927534  53.8007257  26.1591068  48.2857534
  53.0807257  24.5601068  48.5067534  52.1577257  25.6961068  46.9597534
  51.0777257  25.5871068  47.0557534  52.4557257  27.1071068  46.1887534
  52.0467257  27.0541068  45.1797534  53.5327257  27.2731068  46.2217534
  51.9527257  27.8851068  46.7637534  52.6197257  24.6011068  46.0587534
  51.9097257  24.5761068  45.2317534  53.6707257  24.7181068  45.7937534
  52.6307257  23.6791068  46.6397534  52.6527257  25.4391068  50.8317534
  52.4787257  24.2821068  51.1187534  53.3047257  26.1621068  51.7247534
  53.8227257  26.9661068  51.3917534  53.6487257  25.7511068  53.0827534
  54.0757257  24.7481068  53.0587534  54.6107257  26.6971068  53.7867534
  54.8197257  26.3411068  54.7957534  55.5337257  26.8561068  53.2287534
  53.9477257  27.9611068  53.9797534  53.9537257  28.5241068  53.2017534
  52.4017257  25.6081068  54.0267534  52.5427257  25.1231068  55.1417534
  51.1757257  26.0111068  53.6047534  51.1627257  26.6721068  52.8367534
  49.9787257  26.0141068  54.4387534  50.0247257  25.1741068  55.1327534
  49.8187257  27.4271068  55.0897534  50.6647257  27.6361068  55.7447534
  49.9027257  28.1921068  54.3167534  48.7667257  27.5191068  55.9047534
  48.8047257  28.4691068  56.0367534  48.6927257  25.6071068  53.7167534
  48.4847257  25.7551068  52.5197534  47.6157257  25.1861068  54.4587534
  47.8297257  24.9161068  55.4117534  46.2527257  24.9671068  53.9237534
  46.2667257  24.4081068  52.9877534  45.5037257  24.0691068  54.8797534
  44.4527257  24.0321068  54.5937534  45.9087257  23.0571068  54.9017534
  45.6197257  24.6331068  56.2147534  45.4107257  24.0211068  56.9247534
  45.4937257  26.2381068  53.6357534  44.3137257  26.2501068  53.4377534
  46.1847257  27.3821068  53.7677534  47.0787257  27.3071068  54.2367534
  45.5017257  28.7091068  53.7137534  44.5337257  28.6541068  54.2127534
  46.3347257  29.8931068  54.2597534  45.8167257  30.8241068  54.0297534
  46.3077257  29.9371068  55.8287534  46.8357257  29.0491068  56.1767534
  45.2617257  29.8961068  56.1307534  46.8387257  30.8051068  56.2197534
  47.6977257  29.8601068  53.7127534  47.8197257  30.7451068  53.3627534
  45.0967257  29.1241068  52.3237534  44.1337257  29.8501068  52.1517534
  45.7537257  28.5491068  51.3217534  46.4107257  27.8091068  51.5367534
  45.3777257  28.6531068  49.9137534  45.0337257  29.6851068  49.8487534
  46.5957257  28.5641068  48.9527534  46.3657257  28.6821068  47.8937534
  47.2427257  29.3471068  49.3467534  47.4367257  27.2871068  49.0337534
  48.4827257  27.4771068  48.7927534  47.2427257  26.8351068  50.0067534
  46.9217257  26.3401068  47.9597534  45.9187257  25.9581068  48.1447534
  46.8007257  26.8581068  47.0087534  47.8747257  25.2551068  47.6427534
  48.1757257  25.1091068  46.6897534  48.3887257  24.3731068  48.5627534
  48.0677257  24.3431068  49.8927534  47.3377257  24.9681068  50.2017534
  48.7297257  23.8941068  50.5107534  49.2547257  23.5191068  48.2097534
  49.2487257  23.4461068  47.2027534  49.3847257  22.7071068  48.7967534
  44.1657257  27.8001068  49.4627534  43.8747257  27.7661068  48.2727534
  43.4937257  27.1191068  50.3837534  43.6237257  27.3241068  51.3677534
  42.5277257  26.0601068  50.0527534  42.4917257  25.9261068  48.9717534
  42.9027257  24.6771068  50.6217534  42.8917257  24.7991068  51.7047534
  42.1907257  23.9011068  50.3417534  44.3477257  24.3601068  50.1357534
  45.2927257  25.1351068  50.3447534  44.5977257  23.1981068  49.5197534
  43.8977257  22.4771068  49.6437534  45.5297257  22.8531068  49.3227534
  41.0567257  26.4691068  50.4157534  40.5417257  25.9541068  51.3817534
  40.3387257  27.3001068  49.6557534  40.8127257  27.9751068  48.4337534
  41.4297257  27.3401068  47.7867534  41.3687257  28.8751068  48.7227534
  39.6377257  28.2821068  47.5647534  39.3827257  27.4491068  46.9087534
  39.7547257  29.2431068  47.0627534  38.6497257  28.5631068  48.6417534
  37.6317257  28.5391068  48.2537534  38.9587257  29.5671068  48.9317534
  38.8997257  27.5001068  49.7317534  38.8097257  27.9221068  50.7327534
  38.2647257  26.2011068  49.4117534  38.7347257  25.3751068  48.6967534
  37.1347257  26.0041068  50.0397534  36.8207257  26.7741068  50.6177534
  36.2297257  24.8391068  49.8747534  36.8507257  23.9451068  49.9287534
  35.1927257  24.6631068  51.0187534  34.7687257  23.6781068  50.8247534
  35.6937257  24.5201068  51.9767534  34.1627257  25.6371068  51.1597534
  33.0497257  25.6251068  50.3127534  32.9567257  24.7141068  49.7397534
  32.1107257  26.7351068  50.3277534  31.2047257  26.6151068  49.7517534
  32.3427257  27.8171068  51.1617534  31.6027257  28.5951068  51.2787534
  33.4977257  27.8651068  51.9457534  33.8567257  28.7511068  52.4497534
  34.4087257  26.7941068  51.9587534  35.3687257  27.0091068  52.4037534
  35.4937257  24.7981068  48.5257534  34.8727257  23.8311068  48.1317534
  35.3447257  25.9551068  47.9127534  36.0057257  26.6801068  48.1637534
  34.6507257  26.0751068  46.5687534  34.8247257  25.1791068  45.9747534
  33.1767257  26.1301068  46.8667534  32.7577257  25.1461068  47.0787534
  32.6247257  26.5411068  46.0217534  33.0367257  26.9071068  47.6187534
  35.1537257  27.3231068  45.7197534  35.8357257  28.2021068  46.2427534
  34.9027257  27.4141068  44.4067534  34.4547257  26.5971068  44.0097534
  35.1637257  28.4901068  43.4367534  35.4047257  29.4291068  43.9347534
  36.4077257  28.1571068  42.5617534  36.2887257  27.1421068  42.1847534
  36.5297257  29.1551068  41.3497534  36.4437257  30.1361068  41.8187534
  35.7257257  28.9231068  40.6517534  37.4687257  29.0761068  40.8027534
  37.7947257  28.2971068  43.2617534  38.0377257  29.3301068  43.5097534
  37.7797257  27.8741068  44.2667534  38.9247257  27.5611068  42.5097534
  38.7787257  26.4861068  42.6137534  39.9137257  27.8941068  42.8247534
  38.9267257  27.8971068  41.4737534  33.8507257  28.6261068  42.5657534
  33.3377257  27.6081068  42.1437534  33.3777257  29.8791068  42.3677534
  33.7047257  30.6981068  42.8657534  32.1257257  30.2101068  41.5697534
  31.7557257  29.2561068  41.1937534  31.0017257  30.6591068  42.5297534
  31.3167257  31.4601068  43.1987534  29.7737257  31.2631068  41.7957534
  30.0137257  31.9761068  41.0067534  29.0287257  31.6501068  42.4907534
  29.3587257  30.3271068  41.4227534  30.4357257  29.5791068  43.4277534
  29.3747257  29.7171068  43.6337534  30.4517257  28.6641068  42.8357534
  30.9997257  29.3971068  44.7987534  30.3817257  28.6101068  45.2297534
  30.7457257  30.2751068  45.3927534  32.0027257  28.9721068  44.7567534
  32.4547257  31.2601068  40.5097534  33.1527257  32.2141068  40.8017534
  32.0357257  31.0931068  39.2777534  31.5597257  30.2161068  39.1027534
  32.3297257  32.0121068  38.1037534  33.0867257  32.7491068  38.3707534
  32.9517257  31.1711068  37.0207534  32.2567257  30.3931068  36.7087534
  33.2867257  32.0071068  35.7847534  33.8907257  32.8711068  36.0617534
  32.4177257  32.4161068  35.2697534  33.9367257  31.4551068  35.1057534
  34.0667257  30.5501068  37.4507534  33.8977257  30.0021068  38.2207534
  31.0337257  32.7131068  37.7607534  30.0887257  32.0071068  37.3467534
  30.9917257  34.0781068  37.7167534  31.9427257  35.1181068  38.2267534
  32.8637257  35.1191068  37.6317534  32.2797257  35.0711068  39.2697534
  31.1497257  36.4841068  38.1757534  31.4497257  36.9851068  37.2547534
  31.5007257  37.1431068  38.9697534  29.6897257  36.0251068  38.0717534
  29.0887257  36.7581068  37.5327534  29.2787257  35.9251068  39.0757534
  29.7757257  34.6601068  37.2877534  28.9707257  34.0461068  37.6917534
  29.6087257  34.7841068  35.7617534  29.8237257  35.7761068  35.1527534
  29.3117257  33.6231068  35.1037534  29.2377257  32.7761068  35.6547534
  29.2007257  33.4341068  33.6037534  30.1627257  33.7291068  33.1867534
  29.0117257  31.9521068  33.3137534  28.3267257  31.5121068  34.0387534
  28.4547257  31.8781068  32.3797534  30.2407257  31.0651068  33.4427534
  30.9137257  31.4691068  34.1987534  29.8837257  29.5731068  33.8427534
  29.0637257  29.6071068  34.5607534  30.7757257  29.0591068  34.1997534
  29.3457257  29.0851068  33.0297534  30.9657257  31.1041068  32.0667534
  31.6037257  31.9701068  31.8887534  31.6417257  30.2521068  32.0037534
  30.2937257  31.0051068  31.2157534  28.1067257  34.3461068  33.0357534
  28.3907257  35.1561068  32.1897534  26.9297257  34.4591068  33.7317534
  26.6627257  33.7681068  34.4217534  26.1147257  35.7331068  33.6887534
  26.4387257  36.4271068  32.9137534  24.6287257  35.3741068  33.5317534
  24.3657257  34.5491068  34.1947534  24.0507257  36.2471068  33.8347534
  24.2647257  35.0161068  32.0687534  23.4947257  33.9791068  31.5857534
  23.1367257  33.2481068  32.1837534  23.3627257  34.0241068  30.2677534
  22.8817257  33.2961068  29.6307534  24.0047257  35.1361068  29.8597534
  24.5727257  35.7841068  30.9757534  25.1867257  36.6701068  31.0397534
  26.3307257  36.5371068  35.0487534  26.5287257  35.9131068  36.0707534
  26.2757257  37.8941068  35.0827534  26.0507257  38.3861068  34.2267534
  26.3307257  38.6311068  36.3247534  27.2117257  38.3091068  36.8797534
  26.5567257  40.1011068  35.9577534  27.4997257  40.1931068  35.4187534
  26.4987257  40.7191068  36.8527534  25.8147257  40.3581068  35.2017534
  25.1297257  38.2841068  37.2787534  25.1057257  38.6801068  38.4557534
  24.0857257  37.6701068  36.8587534  24.0777257  37.3311068  35.9047534
  22.9527257  37.2761068  37.6517534  22.4667257  38.1091068  38.1597534
  21.7727257  36.6331068  36.8417534  22.1957257  35.8121068  36.2637534
  20.9697257  36.4001068  37.5407534  21.2077257  37.6251068  35.9857534
  21.9207257  37.8411068  35.3797534  23.4037257  36.2601068  38.7617534
  22.8687257  36.2391068  39.8237534  24.5327257  35.6051068  38.5547534
  25.1167257  35.6821068  37.7297534  25.0477257  34.5971068  39.5297534
  24.3277257  33.8611068  39.8877534  26.1647257  33.8461068  38.8497534
  26.8887257  34.5841068  38.5047534  26.6557257  33.3041068  39.6587534
  25.7787257  33.0891068  37.6267534  24.5147257  32.9851068  37.0797534
  23.6047257  32.9631068  37.5167534  24.6547257  32.3691068  35.9207534
  23.7667257  32.1221068  35.3577534  25.9127257  32.0601068  35.6257534
  26.6617257  32.6911068  36.6167534  27.7287257  32.5831068  36.7407534
  25.6497257  35.1471068  40.9117534  25.7027257  34.4391068  41.8817534
  25.9957257  36.4881068  40.9297534  25.8417257  37.0201068  40.0817534
  26.5887257  37.1461068  42.1427534  27.3027257  36.4061068  42.5037534
  27.1817257  38.5231068  41.8287534  26.3787257  39.1611068  41.4587534
  27.6757257  39.2531068  43.1287534  28.2987257  38.6071068  43.7467534
  26.7977257  39.4631068  43.7397534  28.2557257  40.1291068  42.8367534
  28.3867257  38.4341068  40.7987534  29.2337257  39.0561068  41.0857534
  28.9237257  37.4851068  40.8067534  28.0277257  38.6811068  39.3297534
  28.8967257  38.8941068  38.7077534  27.4047257  39.5681068  39.2107534
  27.6807257  37.7171068  38.9587534  25.4017257  37.1941068  43.0647534
  25.5667257  36.7541068  44.1747534  24.1797257  37.6381068  42.6627534
  24.0597257  38.0341068  41.7377534  22.9987257  37.7951068  43.5217534
  23.2007257  38.5331068  44.2987534  21.8637257  38.3821068  42.5897534
  21.9157257  37.8241068  41.6557534  20.8807257  38.1871068  43.0197534
  22.0867257  39.8571068  42.2707534  23.0437257  40.1591068  41.8447534
  21.2877257  40.2411068  41.6377534  21.8607257  40.7221068  43.4707534
  21.5807257  40.3781068  44.6017534  21.8627257  42.0151068  43.1747534
  21.9817257  42.7171068  43.8957534  21.7407257  42.1851068  42.1837534
  22.6427257  36.4951068  44.0877534  22.2817257  36.5021068  45.2897534
  22.6967257  35.3401068  43.4237534  22.9737257  35.3241068  42.4497534
  22.3747257  34.0651068  43.8947534  21.4077257  34.1331068  44.3927534
  22.3127257  33.0201068  42.7217534  21.5757257  33.3301068  41.9817534
  21.9507257  32.0731068  43.1227534  23.2897257  32.9151068  42.2497534
  23.3567257  33.6101068  44.8837534  22.9977257  33.0801068  45.8987534
  24.6217257  33.8851068  44.6777534  25.0187257  34.2391068  43.8157534
  25.6477257  33.4961068  45.6627534  25.5827257  32.4361068  45.9067534
  27.0097257  33.7251068  44.8617534  27.0097257  33.2581068  43.8767534
  27.8587257  33.2391068  45.3427534  27.2717257  34.7731068  44.7147534
  25.5927257  34.3221068  46.9327534  25.8227257  33.7471068  47.9437534
  25.1827257  35.5801068  46.8527534  25.0907257  35.9891068  45.9307534
  24.9897257  36.4451068  47.9947534  25.8627257  36.3241068  48.6357534
  24.8867257  37.9761068  47.6237534  24.1067257  38.2811068  46.9257534
  24.6697257  38.5381068  48.5317534  26.1537257  38.4401068  47.0077534
  26.2547257  37.7861068  46.1417534  25.9537257  39.9451068  46.7037534
  25.8087257  40.5541068  47.5957534  25.1547257  40.0131068  45.9647534
  26.8097257  40.2931068  46.1257534  27.4317257  38.3791068  47.8507534
  27.1867257  38.5791068  48.8937534  27.9977257  37.4651068  47.6707534
  28.1327257  39.1751068  47.6007534  23.9327257  35.8801068  48.9627534
  24.1987257  35.5841068  50.0707534  22.7457257  35.6251068  48.4477534
  22.6557257  35.7811068  47.4507534  21.5967257  35.0441068  49.1257534
  21.2317257  35.6641068  49.9437534  20.4577257  35.0691068  48.1317534
  20.2757257  36.0751068  47.7547534  20.5907257  34.4641068  47.2337534
  19.1317257  34.7581068  48.7577534  18.6417257  33.4351068  48.7267534
  19.0967257  32.5711068  48.2647534  17.4767257  33.1091068  49.4877534
  17.1697257  32.0751068  49.5357534  16.7517257  34.1051068  50.1257534
  15.6447257  33.7271068  50.7817534  14.8067257  33.9271068  50.3587534
  17.3247257  35.3561068  50.2217534  16.7157257  36.0501068  50.7817534
  18.5117257  35.7801068  49.5607534  18.8777257  36.7801068  49.7407534
  21.9617257  33.6391068  49.7697534  21.7897257  33.3861068  50.9667534
  22.5527257  32.7261068  48.9487534  22.7627257  33.0451068  48.0097534
  22.9857257  31.4771068  49.4107534  22.2187257  30.9191068  49.9477534
  23.4767257  30.6751068  48.2467534  24.2577257  31.1361068  47.6417534
  23.8527257  29.7261068  48.6297534  22.2937257  30.3201068  46.9837534
  24.0007257  31.6561068  50.5607534  23.7217257  31.0331068  51.6117534
  25.0527257  32.5341068  50.4497534  25.0877257  33.0301068  49.5667534
  26.0907257  32.8681068  51.5007534  26.6937257  32.0451068  51.8857534
  27.0537257  33.8711068  50.8707534  27.4417257  33.3891068  49.9737534
  26.4237257  34.6791068  50.4997534  28.0647257  34.4521068  51.6957534
  28.6047257  33.7561068  52.0777534  25.5047257  33.4811068  52.7747534
  25.8517257  33.0211068  53.7967534  24.6187257  34.3391068  52.5927534
  24.3797257  34.6681068  51.6647534  23.8917257  34.8461068  53.7177534
  24.6917257  35.0491068  54.4287534  23.3157257  36.2611068  53.3497534
  23.6437257  37.0091068  54.0717534  23.8457257  36.6661068  52.4877534
  21.7917257  36.4351068  53.1687534  21.6367257  37.2331068  52.4417534
  21.3417257  35.5301068  52.7627534  20.9937257  36.8571068  54.4567534
  19.8497257  36.6071068  54.6357534  21.6677257  37.3071068  55.4867534
  21.1027257  37.6621068  56.2497534  22.6527257  37.5321068  55.4167534
  22.9817257  33.7771068  54.3447534  22.9847257  33.7171068  55.5217534
  22.1207257  32.9101068  53.6167534  22.0337257  33.2091068  52.6527534
  21.0697257  32.0741068  54.2277534  20.6857257  32.5961068  55.1037534
  20.0357257  31.7641068  53.0507534  20.6067257  31.3831068  52.2047534
  19.3937257  30.9421068  53.3667534  19.1467257  32.8541068  52.6737534
  19.7697257  33.6491068  52.2637534  18.5317257  32.4851068  51.8517534
  18.1647257  33.5491068  53.6787534  18.5737257  33.7201068  54.6747534
  17.9397257  34.5391068  53.2817534  16.8337257  32.7571068  53.8307534
  16.5597257  32.5291068  52.8007534  16.9917257  31.7811068  54.2897534
  15.7977257  33.5491068  54.5337534  15.1597257  32.7981068  54.7567534
  15.3517257  34.2711068  53.9867534  16.2407257  34.0701068  55.2767534
  21.7137257  30.7821068  54.7767534  21.1407257  30.2151068  55.6537534
  22.9417257  30.3361068  54.3957534  23.3317257  30.8321068  53.6037534
  23.6237257  29.1141068  54.8787534  22.9667257  28.6341068  55.6037534
  23.6177257  28.0901068  53.7687534  24.2017257  28.5601068  52.9767534
  24.0977257  27.1721068  54.1077534  22.2417257  27.6241068  53.3847534
  21.4937257  26.7351068  54.1387534  21.8267257  26.1841068  54.9167534
  20.3657257  26.5231068  53.5087534  19.6267257  25.8631068  53.9397534
  20.2157257  27.4441068  52.4977534  21.3487257  28.1111068  52.4997534
  21.4957257  28.9991068  51.9037534  25.0357257  29.5371068  55.4297534
  25.9027257  28.7181068  55.4157534  25.2187257  30.7691068  55.7897534
  24.4667257  31.4451068  55.7227534  26.3277257  31.3511068  56.5277534
  26.1217257  32.4131068  56.6577534  26.4137257  30.8711068  57.5027534
  27.7487257  31.2661068  55.9287534  28.6757257  31.6521068  56.6447534
  27.9847257  30.6091068  54.7227534  27.2747257  30.0721068  54.2387534
  29.4127257  30.5101068  54.1677534  30.0847257  30.2281068  54.9777534
  29.5127257  29.4521068  53.1987534  28.7437257  29.6691068  52.4577534
  30.4957257  29.4891068  52.7297534  29.3077257  27.9851068  53.5837534
  28.2467257  27.8151068  53.7647534  29.7137257  27.3091068  52.8307534
  30.1347257  27.6191068  54.7947534  31.3577257  27.9221068  54.9067534
  29.5807257  27.0051068  55.7127534  30.0007257  31.8831068  53.6897534
  29.4047257  32.7341068  52.9827534  31.2127257  32.1541068  54.0807534
  31.5937257  31.4311068  54.6797534  31.9597257  33.4881068  53.8247534
  31.1947257  34.2601068  53.9037534  33.0407257  33.6421068  54.9817534
  32.4977257  33.5711068  55.9237534  33.6267257  32.7281068  54.8857534
  33.9987257  34.8711068  54.8987534  34.7207257  34.8981068  55.7147534
  34.4697257  34.8141068  53.9177534  33.1957257  36.1391068  55.1397534
  32.8017257  36.6081068  56.2077534  33.0087257  36.9311068  54.1017534
  32.3367257  37.6791068  54.2187534  33.4827257  36.8121068  53.2137534
  32.6097257  33.5321068  52.4267534  33.2727257  32.5541068  51.9797534
  32.4097257  34.6331068  51.6697534  31.8827257  35.3951068  52.0787534
  33.0677257  34.7851068  50.4027534  33.1637257  33.7721068  50.0107534
  32.1087257  35.6361068  49.5017534  31.1377257  35.1411068  49.4827534
  31.9417257  36.6331068  49.9097534  32.4997257  35.8521068  48.0737534
  33.4547257  36.3661068  47.9647534  32.7197257  34.9051068  47.5807534
  31.2967257  36.8491068  47.1047534  31.1817257  38.4441068  48.0267534
  30.7717257  38.2851068  49.0327534  32.2127257  38.8081068  48.1167534
  30.5867257  39.2101068  47.5157534  34.4177257  35.4661068  50.5037534
  34.5807257  36.2391068  51.4097534  35.2557257  35.4171068  49.4637534
  35.0267257  34.6821068  48.8047534  36.3037257  36.3191068  49.0487534
  36.0417257  37.3351068  49.3417534  37.7387257  35.9231068  49.4647534
  38.0087257  34.9231068  49.1277534  38.4147257  36.6621068  49.0347534
  37.7737257  36.0461068  50.9497534  37.3697257  36.9561068  51.3937534
  37.2357257  35.1891068  51.3547534  39.2327257  36.0041068  51.4267534
  39.7017257  35.1181068  50.9957534  39.6997257  36.8811068  50.9777534
  39.4527257  35.9051068  52.8897534  38.6587257  35.5441068  53.3997534
  40.5297257  36.2901068  53.5187534  41.5477257  36.7971068  52.9517534
  41.7477257  36.7061068  51.9657534  42.3197257  37.0421068  53.5547534
  40.5427257  36.1521068  54.7717534  39.8597257  35.5091068  55.1467534
  41.4387257  35.9981068  55.2107534  36.2227257  36.5121068  47.4837534
  35.5397257  35.7431068  46.8367534  36.9067257  37.5091068  46.8477534
  37.5337257  38.0861068  47.3957534  36.7267257  38.0111068  45.4477534
  36.1247257  37.2601068  44.9367534  35.9847257  39.3571068  45.5317534
  36.5797257  40.1281068  46.0217534  35.7067257  39.6911068  44.0917534
  35.3357257  38.8881068  43.4537534  36.6277257  40.0971068  43.6727534
  34.9977257  40.5151068  44.0117534  34.7367257  39.3231068  46.3997534
  33.8877257  38.8891068  45.8717534  34.8587257  38.7461068  47.3167534
  34.2297257  40.6211068  47.0017534  34.9277257  40.9491068  47.7717534
  33.2227257  40.5701068  47.4147534  34.0067257  41.3071068  46.1847534
  38.0407257  38.1141068  44.6767534  38.9967257  38.7141068  45.1967534
  38.0957257  37.7561068  43.3907534  37.3487257  37.2501068  42.9297534
  39.2907257  37.9351068  42.4887534  39.9797257  38.6351068  42.9627534
  40.0837257  36.6231068  42.4087534  40.5177257  36.4321068  43.3897534
  39.2737257  35.9281068  42.1847534  41.1567257  36.5991068  41.3187534
  40.7207257  36.4651068  40.3297534  41.7527257  37.5121068  41.2997534
  42.1977257  35.4521068  41.5627534  42.9647257  35.6291068  40.8087534
  42.5497257  35.6001068  42.5827534  41.5737257  34.1531068  41.2837534
  40.8437257  34.1791068  40.5857534  41.9637257  33.0331068  41.8627534
  42.9687257  32.8391068  42.6237534  43.6537257  33.5801068  42.6427534
  43.0807257  31.8951068  42.9667534  41.2837257  31.9711068  41.5707534
  40.4707257  32.0211068  40.9737534  41.6847257  31.0571068  41.7227534
  38.9827257  38.4071068  41.1067534  38.0977257  37.8441068  40.4357534
  39.5887257  39.5461068  40.7057534  40.3047257  39.8511068  41.3537534
  39.6017257  40.2181068  39.4637534  38.7717257  39.9301068  38.8187534
  39.5697257  41.6791068  39.6827534  39.8077257  42.1951068  38.7527534
  38.5207257  41.7651068  39.9677534  40.4537257  42.2521068  40.6087534
  41.3557257  42.1561068  40.2947534  40.9567257  39.9551068  38.7007534
  41.0087257  40.2651068  37.5367534  41.9687257  39.4541068  39.3857534
  41.9987257  39.4821068  40.3977534  43.3017257  39.2571068  38.7927534
  43.1307257  38.6741068  37.8877534  43.8507257  40.1911068  38.6737534
  44.3067257  38.5361068  39.6937534  44.9767257  37.6341068  39.2687534
  44.2457257  38.6511068  41.0627534  43.5867257  39.3441068  41.3957534
  45.0467257  37.9121068  42.0457534  44.5217257  37.8391068  42.9977534
  45.0367257  36.8511068  41.7997534  46.5457257  38.3701068  42.1827534
  47.3527257  37.6841068  42.7607534  47.0597257  39.5211068  41.5827534
  46.3397257  40.1251068  41.2027534  48.4837257  39.9101068  41.5307534
  49.0307257  40.7871068  40.2787534  50.2267257  40.1121068  39.6047534
  51.5877257  39.9341068  39.9817534  52.0847257  39.0351068  38.9987534
  51.2437257  38.9001068  37.9667534  50.0787257  39.5401068  38.3637534
  49.1437257  39.4811068  37.8237534  53.0767257  38.6091068  39.0527534
  52.2937257  40.5261068  41.0607534  52.7287257  42.0191068  40.8757534
  53.6687257  42.5581068  39.9207534  53.9997257  43.8861068  39.9597534
  53.2497257  44.8151068  40.7397534  53.4037257  46.0971068  40.3327534
  52.5677257  47.0301068  40.8347534  52.6577257  48.4021068  40.3207534
  51.8547257  49.2861068  41.0447534  50.9577257  48.9571068  42.0547534
  51.0597257  47.6051068  42.4927534  51.8047257  46.5911068  42.0167534
  51.5117257  45.2761068  42.3657534  50.4717257  44.9841068  43.3967534
  49.0057257  44.8571068  42.9047534  47.8627257  44.6771068  43.9797534
  46.4287257  44.7601068  43.3817534  46.1957257  43.5611068  42.5367534
  44.9047257  43.6531068  41.9157534  44.3087257  42.2301068  41.3347534
  43.0137257  42.3261068  40.5887534  45.3997257  41.5661068  40.6097534
  44.2117257  41.4441068  42.7127534  42.8937257  40.7371068  43.3167534
  43.2907257  39.8051068  44.3917534  42.0857257  39.8701068  42.3787534
  42.2007257  42.0691068  43.9687534  42.7637257  42.6991068  45.1797534
  41.6507257  42.7751068  46.1957534  41.0407257  41.4221068  46.6207534
  41.8287257  40.9691068  47.7387534  42.5617257  40.5521068  47.2527534
  39.5897257  41.8411068  46.9297534  39.3667257  43.0281068  46.0647534
  38.4677257  42.7551068  44.9507534  37.1797257  43.1641068  44.8287534
  36.2907257  43.5981068  45.7247534  35.0787257  43.8381068  45.2237534
  34.6857257  43.6951068  43.9367534  35.6367257  43.2821068  43.0797534
  35.2987257  43.1951068  41.8037534  34.4377257  43.6341068  41.5017534
  36.0617257  42.9531068  41.1837534  36.8917257  42.9621068  43.4877534
  37.9187257  42.4731068  42.7657534  38.8267257  42.3281068  43.7437534
  39.8297257  42.0551068  43.4437534  34.3157257  44.2321068  45.8907534
  40.6157257  43.5181068  45.5817534  39.0037257  43.8181068  46.7317534
  39.4437257  42.2561068  48.2787534  39.7257257  41.4351068  48.7177534
  38.8837257  41.0221068  46.7437534  41.1137257  40.5991068  45.8987534
  41.9837257  43.2741068  47.1137534  43.1177257  43.7281068  45.0407534
  43.5827257  42.1561068  45.6667534  46.2937257  42.6921068  43.1997534
  46.9327257  43.4621068  41.7307534  45.5707257  44.7161068  44.4847534
  44.7327257  45.0671068  44.1347534  46.2277257  45.7221068  42.8937534
  48.1527257  43.4231068  44.6887534  48.5277257  42.8511068  43.9957534
  47.8627257  45.5881068  44.5907534  48.6927257  45.9171068  41.9977534
  48.7077257  46.7761068  42.4537534  49.0287257  43.9541068  42.2827534
  50.3687257  45.8281068  44.0897534  50.7827257  44.2541068  44.1547534
  52.2947257  44.3421068  41.6417534  52.1057257  42.9321068  41.7667534
  51.3417257  42.6551068  42.4877534  50.1917257  49.7321068  42.5697534
  51.9187257  50.2841068  40.8837534  53.2107257  48.8181068  39.3477534
  54.6837257  44.2521068  39.1997534  54.3477257  41.6491068  38.8337534
  54.6657257  40.7351068  39.3497534  55.2577257  42.0751068  38.3917534
  53.6317257  41.3821068  38.0467534  53.2237257  39.9681068  41.2207534
  51.7057257  40.3911068  41.9767534  48.1747257  40.8031068  39.5927534
  49.1817257  41.7901068  40.6967534  49.0397257  38.9751068  41.3847534
  48.9367257  40.4661068  42.8947534  48.9797257  41.6561068  43.1357534
  49.1797257  39.6451068  43.8537534  49.0067257  38.6811068  43.5937534
  49.2247257  39.9841068  45.3067534  49.6777257  40.9741068  45.3717534
  47.8297257  39.9941068  45.9897534  47.1157257  40.3621068  45.2537534
  47.3797257  39.0181068  46.1727534  47.7747257  40.7311068  47.2627534
  46.5967257  41.0451068  47.5847534  48.8067257  40.7881068  48.0347534
  50.1387257  39.0071068  46.0417534  49.8217257  37.8771068  46.2167534
  51.1897257  39.6511068  46.6157534  51.1047257  40.6611068  46.6017534
  52.2017257  39.0201068  47.4397534  52.6227257  38.1481068  46.9387534
  53.3907257  40.0031068  47.5987534  53.2097257  40.7631068  48.3587534
  54.1717257  39.4161068  48.0827534  53.8297257  40.6581068  46.3527534
  54.7897257  40.0151068  45.5337534  55.2087257  39.0531068  45.7897534
  55.1117257  40.6531068  44.2567534  55.7107257  40.2451068  43.4557534
  54.6487257  41.9771068  43.9977534  55.0587257  42.6441068  42.8797534
  55.9897257  42.4621068  42.7287534  53.8317257  42.6701068  44.9087534
  53.5107257  43.6851068  44.7267534  53.4477257  42.0231068  46.0877534
  52.8237257  42.5391068  46.8027534  51.7777257  38.5171068  48.8177534
  52.2957257  37.5041068  49.2517534  50.7877257  39.1451068  49.4327534
  50.3797257  39.9661068  49.0017534  50.2347257  38.6801068  50.8217534
  50.9457257  38.0471068  51.3537534  49.9477257  39.8411068  51.6777534
  49.2187257  40.5061068  51.2137534  49.4867257  39.4731068  52.5947534
  51.1497257  40.7621068  51.9857534  51.5517257  40.9141068  50.9837534
  50.8457257  41.6571068  52.5277534  52.2747257  40.1341068  52.7757534
  53.3697257  40.0581068  52.2287534  52.1857257  39.9641068  54.0157534
  48.9777257  37.8261068  50.6437534  48.6797257  36.9731068  51.4927534
  48.3847257  37.8501068  49.4447534  48.7517257  38.5081068  48.7677534
  47.4587257  36.8991068  48.8667534  47.5317257  37.0231068  47.7867534
  47.7107257  35.8541068  49.0487534  45.9437257  37.0281068  49.2377534
  45.2097257  36.0581068  49.3057534  45.4887257  38.3171068  49.4907534
  46.1547257  39.0771068  49.4187534  44.2987257  38.5151068  50.2627534
  44.5147257  37.9711068  51.1817534  43.9497257  39.9801068  50.5817534
  43.5767257  40.4681068  49.6807534  43.0607257  39.8451068  51.1977534
  45.1397257  40.7541068  51.3007534  45.9377257  41.0201068  50.6067534
  44.6857257  42.0561068  52.0377534  45.5357257  42.4621068  52.5867534
  43.8977257  41.8321068  52.7567534  44.3517257  42.7081068  51.2307534
  45.6977257  39.9051068  52.4567534  46.5377257  40.4021068  52.9397534
  44.9367257  39.6611068  53.1987534  46.1267257  38.9691068  52.1007534
  43.0787257  37.8491068  49.5957534  42.2157257  37.3601068  50.3477534
  43.1047257  37.7681068  48.2367534  43.7317257  38.3591068  47.7037534
  41.9437257  37.2011068  47.5727534  41.1207257  37.5241068  48.2087534
  41.7267257  37.6041068  46.1277534  40.8317257  37.1491068  45.7037534
  41.5727257  38.6821068  46.1807534  42.9337257  37.3921068  45.3527534
  43.1367257  38.1691068  44.8277534  41.9307257  35.6021068  47.6047534
  40.8867257  34.9361068  47.5217534  43.1317257  35.0781068  47.3227534
  43.9107257  35.7221068  47.3857534  43.3207257  33.6731068  46.8957534
  42.3317257  33.3891068  46.5367534  44.2897257  33.5951068  45.7197534
  44.3177257  32.5591068  45.3817534  43.9527257  34.3141068  44.9737534
  45.6977257  34.0151068  45.9927534  46.5267257  33.2601068  46.8137534
  46.1407257  32.3871068  47.3187534  47.8457257  33.6931068  47.0377534
  48.4907257  33.1951068  47.7467534  48.3287257  34.8851068  46.4617534
  49.5927257  35.3371068  46.7757534  49.6447257  36.2801068  46.6077534
  47.5377257  35.6271068  45.5447534  47.9287257  36.4881068  45.0217534
  46.2207257  35.2091068  45.3007534  45.6637257  35.7641068  44.5597534
  43.6647257  32.7651068  48.0747534  43.4357257  31.5571068  48.0597534
  44.0437257  33.3051068  49.2337534  44.1567257  34.3041068  49.3547534
  44.1317257  32.6041068  50.5247534  43.6197257  31.6421068  50.5247534
  45.6727257  32.4001068  50.8687534  45.7407257  31.7941068  51.7717534
  46.0647257  31.7181068  50.1147534  46.6427257  33.5931068  51.0727534
  46.9297257  33.9141068  50.0707534  46.0127257  34.3641068  51.5157534
  47.7637257  33.3741068  52.0747534  48.0327257  32.3041068  52.6697534
  48.4837257  34.3811068  52.5047534  49.3357257  34.0441068  52.9367534
  48.3957257  35.2681068  52.0247534  43.4187257  33.3641068  51.6927534
  43.0417257  34.5121068  51.5467534  43.1767257  32.5911068  52.7487534
  43.4917257  31.6281068  52.7387534  42.3927257  32.9711068  53.9177534
  42.5537257  34.0181068  54.1727534  40.8987257  32.7481068  53.6477534
  40.6107257  33.4021068  52.8247534  40.6697257  31.7071068  53.4207534
  40.1087257  33.1131068  54.7617534  39.5217257  32.3661068  54.8977534
  42.8417257  32.1801068  55.1397534  43.0787257  30.9811068  55.0217534
  42.7487257  32.8401068  56.2897534  42.6087257  33.8361068  56.1717534
  42.8627257  32.3021068  57.6717534  43.5807257  31.4861068  57.7557534
  43.1607257  33.4861068  58.6387534  43.3537257  32.9671068  59.5777534
  44.0837257  33.9471068  58.2857534  42.0977257  34.4391068  58.7907534
  42.2087257  35.0151068  58.0307534  41.4717257  31.5891068  58.0747534
  41.6037257  30.7521068  58.9167534  40.3477257  31.7461068  57.3417534
  40.2717257  32.5421068  56.7197534  39.0547257  31.0521068  57.7627534
  39.1327257  30.2711068  58.5197534  37.9687257  32.1121068  58.1377534
  37.1217257  31.6151068  58.6087534  38.6857257  33.0631068  59.2007534
  37.8637257  33.5391068  59.7347534  39.3867257  32.5321068  59.8447534
  39.2397257  33.8301068  58.6597534  37.2817257  32.9991068  57.0777534
  36.7977257  32.3791068  56.3237534  38.0787257  33.5021068  56.5307534
  36.5647257  33.6531068  57.5737534  38.5207257  30.2441068  56.5267534
  38.9327257  30.5891068  55.3617534  37.5797257  29.2321068  56.7517534
  36.9777257  28.7001068  58.0137534  36.0617257  29.2141068  58.3307534
  37.6717257  28.5341068  58.8467534  36.5457257  27.2751068  57.6677534
  35.7057257  26.8771068  58.2367534  37.4507257  26.6751068  57.7567534
  36.0767257  27.5101068  56.2237534  35.0727257  27.9261068  56.1347534
  36.0927257  26.5981068  55.6287534  36.9617257  28.5131068  55.5887534
  37.6867257  27.9591068  54.9927534  36.1947257  29.4401068  54.6147534
  35.2687257  30.0731068  55.0507534  36.5667257  29.4241068  53.3037534
  37.2907257  28.8071068  52.9557534  35.9687257  30.2601068  52.2857534
  34.9367257  30.5251068  52.5147534  36.7867257  31.5231068  52.1317534
  36.1787257  32.2981068  51.6667534  37.0177257  31.8851068  53.1337534
  38.1777257  31.5271068  51.4567534  39.1767257  30.5961068  51.8777534
  39.0917257  30.0551068  52.8087534  40.3857257  30.6051068  51.1007534
  41.2337257  29.9711068  51.3137534  40.6047257  31.5301068  50.0807534
  41.4737257  31.3301068  49.4727534  39.6227257  32.4901068  49.7067534
  39.8837257  33.1211068  48.8697534  38.3667257  32.3811068  50.3217534
  37.5517257  32.9811068  49.9437534  35.8897257  29.6501068  50.9107534
  36.5377257  28.7011068  50.5767534  35.1887257  30.4421068  50.0667534
  34.7127257  31.2761068  50.3897534  35.0577257  30.3591068  48.5947534
  35.6877257  29.4971068  48.3737534  33.6167257  30.0261068  48.1757534
  33.6137257  29.8101068  47.1067534  33.3247257  29.2131068  48.8407534
  32.5267257  31.1511068  48.3997534  31.8327257  31.1361068  49.6107534
  32.2237257  30.5021068  50.3927534  30.7567257  32.0271068  49.7547534
  30.2687257  32.1071068  50.7147534  30.4097257  32.8621068  48.6567534
  29.6267257  33.5821068  48.8397534  31.0617257  32.7881068  47.4207534
  30.7377257  33.4421068  46.6237534  32.1457257  31.9621068  47.3127534
  32.7887257  32.0081068  46.4467534  35.4757257  31.6241068  47.9277534
  35.5357257  32.7331068  48.4687534  35.9597257  31.5001068  46.6717534
  36.0347257  30.5661068  46.2867534  36.4087257  32.5721068  45.7617534
  36.5717257  33.4931068  46.3217534  37.7647257  32.2051068  45.0747534
  37.6807257  31.2511068  44.5547534  38.2107257  33.4481068  44.2047534
  37.4767257  33.6361068  43.4207534  39.1377257  33.1001068  43.7477534
  38.0377257  34.3121068  44.8457534  38.7187257  31.9781068  46.2337534
  38.7387257  32.8781068  46.8477534  38.4467257  31.1131068  46.8377534
  40.2247257  31.8141068  45.7817534  40.4037257  30.9931068  45.0867534
  40.8317257  31.7171068  46.6827534  40.6167257  32.7351068  45.3497534
  35.3127257  32.7891068  44.7507534  34.8767257  31.8061068  44.1337534
  34.7937257  34.0571068  44.5907534  35.2367257  34.7641068  45.1657534
  34.1107257  34.5611068  43.4577534  33.5927257  33.7171068  43.0037534
  33.1217257  35.6311068  43.9617534  32.3837257  35.0851068  44.5507534
  33.6217257  36.3251068  44.6377534  32.4677257  36.4401068  42.8307534
  33.1747257  36.8861068  42.1307534  31.5067257  35.5081068  41.9697534
  30.8977257  36.1221068  41.3067534  30.8047257  35.0321068  42.6547534
  32.1007257  34.7221068  41.5027534  31.6397257  37.4441068  43.5277534
  31.0007257  37.9861068  42.8307534  31.0727257  36.9281068  44.3017534
  32.2357257  38.2051068  44.0297534  35.2407257  34.8811068  42.4797534
  35.8177257  35.9251068  42.6317534  35.4257257  33.9891068  41.4547534
  34.7617257  33.2321068  41.3437534  36.5897257  34.1551068  40.6097534
  37.3477257  34.6751068  41.1947534  37.1827257  32.7161068  40.3837534
  37.3347257  32.1891068  41.3257534  36.5047257  32.1041068  39.7887534
  38.5987257  32.8021068  39.8727534  39.2507257  31.7971068  39.5317534
  39.2057257  33.8681068  39.8907534  36.2257257  34.9081068  39.3037534
  36.0827257  34.3081068  38.2297534  35.8207257  36.1491068  39.4337534
  35.9227257  36.4861068  40.3827534  35.1557257  36.9761068  38.4117534
  34.5807257  36.2691068  37.8147534  34.2127257  37.9791068  39.0337534
  33.7417257  38.5241068  38.2147534  33.5097257  37.3291068  39.5537534
  34.9637257  38.9951068  40.0037534  35.4607257  38.4611068  40.8137534
  36.0007257  39.9631068  39.3947534  36.8367257  39.3291068  39.0997534
  36.4077257  40.7421068  40.0387534  35.5077257  40.5261068  38.6027534
  33.8187257  39.7931068  40.5697534  33.0507257  39.1001068  40.9137534
  34.2407257  40.3761068  41.3887534  33.3587257  40.3871068  39.7797534
  36.1027257  37.4591068  37.3527534  35.5557257  38.2071068  36.5007534
  37.3777257  37.0281068  37.3147534  37.7677257  36.6241068  38.1577534
  38.2147257  37.2441068  36.1107534  38.7437257  38.1861068  35.9667534
  39.3267257  36.2801068  36.2827534  38.9737257  35.2851068  36.5537534
  39.8207257  36.1801068  35.3167534  40.3077257  36.8271068  37.3227534
  40.5607257  37.8541068  37.0587534  39.7237257  36.8141068  38.2427534
  41.5347257  35.8331068  37.4497534  42.0927257  35.8121068  36.5137534
  42.2887257  36.2741068  38.1017534  41.0797257  34.5061068  37.8267534
  40.1477257  34.4401068  38.2097534  41.8877257  33.4541068  37.9197534
  43.1077257  33.4861068  37.5077534  43.5277257  34.3751068  37.2757534
  43.6427257  32.6521068  37.3117534  41.3917257  32.2881068  38.0837534
  40.4417257  32.1741068  38.4067534  41.9917257  31.4771068  38.0497534
  37.6097257  36.9541068  34.7497534  38.0167257  37.5811068  33.7687534
  36.5517257  36.1531068  34.6547534  36.3177257  35.6251068  35.4867534
  35.7967257  36.1801068  33.3497534  36.5417257  35.9741068  32.5817534
  34.8977257  35.0961068  33.4827534  34.5577257  34.6441068  32.5507534
  35.3697257  34.2201068  33.9287534  33.7057257  35.4001068  34.3977534
  33.7897257  35.7881068  35.5367534  32.5557257  35.2701068  33.8607534
  32.3907257  34.8741068  32.9427534  31.7337257  35.7151068  34.2507534
  35.1867257  37.5461068  32.9127534  35.2157257  37.8001068  31.6997534
  34.6757257  38.3631068  33.8237534  34.9267257  38.1861068  34.7887534
  33.9857257  39.6281068  33.4877534  33.5097257  39.3241068  32.5557534
  32.8877257  40.1311068  34.4047534  33.3437257  40.5571068  35.2987534
  32.4197257  40.9611068  33.8757534  31.8317257  39.0231068  34.7997534
  32.4417257  38.2051068  35.1827534  30.8997257  39.4981068  35.8767534
  31.2877257  39.2731068  36.8697534  29.9747257  38.9241068  35.8197534
  30.8527257  40.5831068  35.7947534  31.1147257  38.4781068  33.5587534
  30.4177257  37.7141068  33.8997534  30.7487257  39.3541068  33.0237534
  31.8407257  38.0241068  32.8837534  35.0477257  40.7421068  33.1907534
  35.6347257  41.2531068  34.0647534  35.3057257  40.9611068  31.8777534
  34.7987257  40.4661068  31.1527534  36.5077257  41.6511068  31.4407534
  36.8597257  42.2861068  32.2537534  37.5517257  40.6461068  30.9317534
  37.1367257  40.0851068  30.0947534  38.3507257  41.2981068  30.5787534
  37.9677257  39.8181068  31.9987534  37.2447257  39.2371068  32.2437534
  36.1737257  42.6811068  30.3037534  37.0137257  43.1251068  29.5557534
  34.8647257  43.0711068  30.1117534  34.1707257  42.6361068  30.7087534
  34.4317257  44.0091068  29.0167534  35.0277257  43.6461068  28.1797534
  32.9107257  43.8421068  28.8377534  32.5817257  42.8041068  28.8887534
  32.4167257  44.4331068  29.6107534  32.4577257  44.3321068  27.5947534
  31.6097257  43.9251068  27.4027534  34.7987257  45.5171068  29.2027534
  34.4597257  46.0101068  30.2637534  35.4057257  46.1031068  28.1397534
  35.5167257  45.5361068  27.3077534  35.9767257  47.4721068  28.1217534
  35.9137257  47.8521068  29.1417534  37.4627257  47.4301068  27.7887534
  37.5857257  46.8881068  26.8517534  38.0937257  48.8161068  27.5257534
  39.0597257  48.7421068  27.0257534  38.1517257  49.4881068  28.3817534
  37.3957257  49.2991068  26.8417534  38.3277257  46.6891068  28.8137534
  38.1427257  47.1291068  29.7937534  38.0487257  45.6361068  28.8497534
  39.7797257  46.7001068  28.5397534  40.2037257  45.8571068  29.0857534
  40.2557257  47.6291068  28.8547534  39.9557257  46.5081068  27.4807534
  35.0307257  48.3091068  27.1517534  34.5587257  47.7691068  26.1747534
  34.8307257  49.5971068  27.4347534  35.2277257  49.8911068  28.3187534
  34.0227257  50.6151068  26.6397534  34.0537257  50.1791068  25.6407534
  32.5327257  50.6271068  27.0127534  32.1227257  49.6271068  26.8697534
  32.3707257  50.8391068  28.0697534  31.8697257  51.5741068  26.1867534
  31.8527257  51.2951068  25.2687534  34.5227257  52.0461068  26.7207534
  34.3447257  52.7141068  27.6987534  35.2097257  52.4221068  25.6957534
  35.2777257  51.7851068  24.9097534  36.0717257  53.6321068  25.5887534
  36.2517257  53.9681068  26.6097534  37.4987257  53.2921068  24.9947534
  37.3587257  52.8781068  23.9957534  38.4067257  54.5131068  24.8357534
  39.3657257  54.2861068  24.3717534  38.5177257  55.1591068  25.7067534
  38.0077257  55.2231068  24.1107534  38.2367257  52.2751068  25.8717534
  38.6187257  52.7331068  26.7847534  37.5627257  51.5371068  26.3087534
  39.4167257  51.6051068  25.1047534  39.0427257  51.0561068  24.2407534
  39.7487257  50.7901068  25.7477534  40.2117257  52.3081068  24.8597534
  35.4267257  54.7591068  24.9327534  34.4807257  54.5461068  24.1717534
  35.8577257  55.9271068  25.3107534  36.5777257  56.0451068  26.0137534
  35.3747257  57.2041068  24.8027534  34.9827257  57.1731068  23.7867534
  34.1107257  57.7841068  25.5717534  33.2147257  57.1641068  25.6067534
  34.4807257  58.0951068  26.5487534  33.6517257  59.0511068  24.7227534
  33.0677257  60.0161068  25.3027534  33.7417257  58.9841068  23.4507534
  36.5227257  58.2631068  24.8247534  36.8727257  58.8531068  25.8417534
  37.0557257  58.5541068  23.6717534  36.7267257  58.0901068  22.8337534
  38.0997257  59.5411068  23.4787534  38.7747257  59.4561068  24.3297534
  38.7737257  59.3631068  22.0747534  38.0027257  59.2501068  21.3117534
  39.3747257  58.4791068  22.2887534  39.4387257  60.2041068  21.8817534
  37.5217257  60.9971068  23.4817534  38.2977257  61.8901068  23.6507534
  36.2127257  61.2341068  23.4807534  35.6177257  60.4151068  23.4467534
  35.6457257  62.5981068  23.5317534  36.2077257  63.3371068  22.9597534
  34.2797257  62.5841068  22.7737534  33.6127257  61.8341068  23.1997534
  33.8547257  63.5871068  22.8087534  34.4587257  62.2511068  21.2757534
  35.2917257  62.7441068  20.7767534  34.6947257  61.1871068  21.2597534
  33.1177257  62.5481068  20.5567534  32.4757257  61.7711068  20.9717534
  32.8897257  63.6031068  20.7087534  33.2017257  62.2021068  19.0717534
  33.9397257  62.8611068  18.6127534  33.4437257  61.1401068  19.0417534
  31.9567257  62.2431068  18.3667534  32.1037257  62.4941068  17.3997534
  31.3507257  62.9521068  18.7537534  31.4177257  61.3951068  18.4647534
  35.4117257  63.0971068  25.0257534  35.9167257  64.1391068  25.4047534
  34.7167257  62.3231068  25.9097534  34.4117257  61.3931068  25.6507534
  34.5607257  62.6101068  27.3457534  34.2197257  63.6411068  27.4457534
  33.5577257  61.6741068  27.8747534  33.4387257  61.7501068  28.9557534
  32.6227257  61.7891068  27.3257534  34.0477257  60.4571068  27.5967534
  33.5647257  60.1841068  26.8127534  35.9607257  62.3641068  28.1247534
  35.9597257  62.5651068  29.3137534  37.0587257  61.9251068  27.4157534
  37.0297257  61.9231068  26.4037534  38.2857257  61.4801068  28.0457534
  38.8167257  60.9481068  27.2557534  39.2657257  62.6371068  28.4467534
  38.8447257  63.0701068  29.3537534  40.1927257  62.0941068  28.6327534
  39.4877257  63.7421068  27.3947534  39.9327257  63.3061068  26.5007534
  38.5047257  64.1541068  27.1697534  40.2907257  64.9131068  27.8817534
  40.0947257  65.8701068  27.3987534  40.2007257  65.0031068  28.9637534
  41.7967257  64.5411068  27.6387534  42.1457257  63.6681068  28.1907534
  41.8577257  64.2221068  26.5977534  42.7887257  65.6491068  27.9657534
  43.5797257  65.6621068  27.3377534  42.9307257  65.6851068  28.9647534
  42.4067257  66.5701068  27.8047534  38.0937257  60.4181068  29.1217534
  38.6787257  60.5181068  30.1767534  37.1567257  59.5111068  28.9407534
  36.8037257  59.4161068  27.9967534  36.7577257  58.5941068  30.0567534
  37.5157257  58.5241068  30.8367534  35.4257257  59.1921068  30.6537534
  35.7507257  60.0171068  31.2867534  34.8447257  59.6931068  29.8787534
  34.7077257  58.2911068  31.3857534  33.9797257  58.8341068  31.6997534
  36.5247257  57.2341068  29.4977534  36.1597257  57.0461068  28.3587534
  36.6857257  56.0981068  30.2367534  36.8737257  56.1351068  31.2307534
  36.3737257  54.7331068  29.7337534  35.5927257  54.7981068  28.9767534
  37.6707257  54.0741068  29.1497534  38.4837257  54.0851068  29.8757534
  37.9377257  54.6231068  28.2477534  37.5637257  53.0101068  28.9407534
  35.7927257  53.7741068  30.8267534  36.0237257  53.9471068  32.0097534
  34.9737257  52.8241068  30.4657534  34.7567257  52.7511068  29.4787534
  34.3747257  51.8361068  31.3577534  34.4947257  52.0781068  32.4137534
  32.8897257  51.7411068  30.9477534  32.7177257  52.0291068  29.9107534
  32.5327257  50.7111068  30.9817534  31.9687257  52.6641068  31.7007534
  31.0397257  53.4441068  31.0137534  31.0627257  53.7141068  29.9687534
  30.1767257  54.0501068  31.9037534  29.4667257  54.7291068  31.6697534
  30.3587257  53.5461068  33.1737534  29.6467257  53.7501068  34.3597534
  28.8737257  54.5051068  34.3827534  30.0167257  52.9671068  35.5037534
  29.4317257  52.9851068  36.4117534  31.1067257  52.0951068  35.4087534
  31.3927257  51.5861068  36.3167534  31.7827257  51.8671068  34.2127534
  32.4687257  51.0331068  34.2127534  31.4637257  52.6341068  33.0647534
  35.0297257  50.5201068  31.1407534  35.4817257  50.1741068  30.0417534
  35.1237257  49.7041068  32.2147534  34.8577257  50.0341068  33.1337534
  35.7217257  48.4231068  32.1807534  35.5597257  47.9331068  31.2207534
  37.3017257  48.6701068  32.2667534  37.6077257  49.1571068  31.3407534
  37.6667257  49.6771068  33.3857534  38.7537257  49.7581068  33.4167534
  37.2237257  50.6671068  33.2787534  37.2997257  49.3391068  34.3547534
  37.9887257  47.3041068  32.5467534  37.5967257  46.5591068  31.8547534
  37.7977257  46.8991068  33.5407534  39.0627257  47.4861068  32.5197534
  35.2307257  47.5451068  33.3347534  35.1797257  48.0921068  34.4457534
  34.8687257  46.2441068  33.0387534  35.1027257  45.8761068  32.1247534
  34.5007257  45.1921068  33.9727534  33.7177257  45.6111068  34.6047534
  33.8057257  44.0031068  33.3317534  34.5247257  43.6141068  32.6117534
  33.6947257  43.1861068  34.0447534  32.4887257  44.4591068  32.6337534
  31.8407257  44.8691068  33.4087534  32.7147257  45.1891068  31.8567534
  31.7797257  43.2591068  31.9667534  32.3567257  42.2351068  31.6117534
  30.4777257  43.2271068  31.9627534  30.1007257  42.3071068  31.7657534
  29.9327257  44.0491068  32.1927534  35.6597257  44.6821068  34.8437534
  36.7617257  44.5121068  34.2897534  35.4107257  44.5021068  36.1377534
  34.4597257  44.4641068  36.4827534  36.4667257  44.3651068  37.2087534
  37.1167257  45.2391068  37.2557534  35.8107257  44.0521068  38.5577534
  36.5247257  43.8081068  39.3437534  35.2227257  43.1411068  38.4467534
  35.2177257  44.9171068  38.8567534  37.4937257  43.2981068  36.8547534
  38.6557257  43.4621068  37.1997534  37.0907257  42.2281068  36.1407534
  36.1277257  42.2671068  35.8307534  37.9507257  41.0831068  35.7127534
  38.4727257  40.7111068  36.5947534  37.3567257  40.2751068  35.2877534
  39.0247257  41.3771068  34.6497534  39.9087257  40.5381068  34.4367534
  38.9407257  42.5231068  33.9577534  38.1917257  43.1271068  34.2747534
  39.8837257  42.8291068  32.7907534  39.9107257  41.9851068  32.1017534
  39.2937257  44.0021068  31.9947534  39.6097257  44.9111068  32.5067534
  38.2127257  43.9811068  31.8547534  39.7027257  43.9611068  30.9857534
  41.3677257  43.1181068  33.2867534  41.5377257  43.5461068  34.4577534
  42.3907257  42.7921068  32.5027534  42.2087257  42.3691068  31.6007534
  43.7497257  43.0711068  32.9387534  43.8327257  42.8991068  34.0117534
  44.8607257  42.1511068  32.2647534  45.7437257  42.4541068  32.8277534
  44.5207257  40.6981068  32.4417534  44.3907257  40.6351068  33.5227534
  45.3887257  40.1181068  32.1267534  43.6497257  40.3561068  31.8837534
  45.0527257  42.4071068  30.8887534  44.2097257  42.3581068  30.4327534
  44.0827257  44.5551068  32.6787534  43.5457257  45.0541068  31.7297534
  44.9787257  45.2301068  33.3987534  45.2957257  44.8031068  34.2617534
  45.3197257  46.6581068  33.0427534  44.3417257  47.1401068  33.0467534
  46.1177257  47.3991068  34.1357534  46.1817257  48.4231068  33.7677534
  45.3597257  47.3951068  35.4997534  45.0977257  46.3921068  35.8357534
  44.4807257  48.0181068  35.3347534  45.9147257  47.8971068  36.2917534
  47.4837257  46.8561068  34.2627534  47.4487257  45.8311068  34.6307534
  47.8957257  46.8171068  33.2547534  48.4447257  47.6121068  35.1167534
  48.3487257  48.6471068  34.7867534  49.4537257  47.2021068  35.1657534
  48.2317257  47.5861068  36.1857534  45.9617257  46.8801068  31.6577534
  45.7357257  47.9391068  31.0787534  46.5917257  45.7921068  31.1837534
  46.5487257  44.9511068  31.7477534  47.2077257  45.6191068  29.8997534
  47.8457257  46.4811068  29.7037534  47.6587257  44.6281068  29.9467534
  46.1677257  45.6221068  28.6887534  46.5057257  46.1471068  27.6507534
  44.9447257  45.1431068  28.9647534  44.6777257  44.7771068  29.8707534
  43.7777257  45.2501068  27.9817534  44.2087257  45.0141068  27.0087534
  42.6897257  44.3511068  28.4667534  42.6197257  44.3101068  29.5537534
  41.7407257  44.6581068  28.0277534  42.9507257  42.9411068  27.8337534
  42.4837257  42.9061068  26.8497534  43.9847257  42.6641068  27.6277534
  42.2097257  41.8911068  28.7737534  41.1687257  41.2961068  28.4157534
  42.7437257  41.6221068  29.9057534  43.1927257  46.7441068  27.9167534
  42.8307257  47.1741068  26.8447534  43.1617257  47.4621068  29.0607534
  43.4837257  47.0261068  29.9167534  42.8177257  48.9001068  29.0897534
  41.8887257  49.0571068  28.5417534  42.6667257  49.2521068  30.5227534
  41.8837257  48.5481068  30.8027534  43.6147257  49.0781068  31.0317534
  42.3357257  50.7631068  30.7417534  43.1527257  51.4271068  30.4607534
  41.1137257  51.1701068  29.8697534  41.4737257  51.1471068  28.8417534
  40.6577257  52.1421068  30.0567534  40.3697257  50.3951068  30.0567534
  42.1087257  50.9381068  32.2887534  43.0347257  51.0751068  32.8467534
  41.4687257  51.8151068  32.3877534  41.5857257  50.1271068  32.7957534
  43.9907257  49.6581068  28.3737534  43.7327257  50.2861068  27.4197534
  45.2557257  49.5681068  28.8067534  45.4357257  49.1851068  29.7277534
  46.3427257  50.0531068  28.0407534  46.1557257  51.1251068  28.1097534
  47.6557257  49.7831068  28.7497534  47.8947257  48.7241068  28.6437534
  48.4567257  50.3391068  28.2617534  47.7157257  50.2041068  30.1967534
  46.8107257  51.0971068  30.7657534  45.9057257  51.3881068  30.2527534
  46.9927257  51.5261068  32.0927534  46.3817257  52.2691068  32.5837534
  48.0957257  51.1071068  32.7907534  48.4247257  51.7371068  33.9787534
  49.3787257  51.7231068  34.0897534  48.9927257  50.1821068  32.1997534
  49.8467257  49.7891068  32.7317534  48.7957257  49.7791068  30.8877534
  49.5367257  49.1511068  30.4157534  46.3337257  49.8001068  26.4887534
  46.4677257  50.7561068  25.7077534  46.1247257  48.5431068  26.0707534
  46.1267257  47.7671068  26.7217534  46.2887257  48.2611068  24.6037534
  47.2127257  48.7271068  24.2617534  46.4217257  46.7781068  24.4537534
  47.4347257  46.4981068  24.7457534  45.7917257  46.3241068  25.2187534
  46.2107257  46.2621068  23.0217534  44.9477257  45.8061068  22.5827534
  44.0327257  45.7361068  23.1517534  44.8547257  45.3251068  21.1907534
  43.9237257  45.1961068  20.6597534  46.0287257  45.1691068  20.4547534
  45.9757257  44.6031068  19.1707534  46.8157257  44.5201068  18.7157534
  47.2637257  45.7151068  20.9547534  48.0977257  45.6431068  20.2727534
  47.3297257  46.2761068  22.2207534  48.2147257  46.7191068  22.6527534
  45.0557257  48.8321068  23.7927534  45.1137257  48.9351068  22.5607534
  43.9937257  49.1801068  24.4977534  44.0077257  48.9771068  25.4897534
  42.7597257  49.7941068  23.8267534  42.6507257  49.5971068  22.7597534
  41.8407257  49.4371068  24.2917534  42.8357257  51.3551068  23.8237534
  42.3337257  51.9521068  22.9107534  43.5107257  51.9661068  24.8687534
  43.8577257  51.3921068  25.6277534  43.8887257  53.3591068  24.9987534
  42.9577257  53.8481068  24.7127534  44.3667257  53.7511068  26.4327534
  45.3387257  53.3191068  26.6717534  44.7517257  55.2421068  26.3997534
  44.9827257  55.4531068  27.4437534  43.8047257  55.7621068  26.2577534
  45.4547257  55.6091068  25.6527534  43.4227257  53.4921068  27.6017534
  42.4707257  53.9881068  27.4107534  43.0987257  52.4531068  27.5377534
  43.8537257  53.7461068  29.0987534  44.7687257  53.1941068  29.3157534
  42.9617257  53.5301068  29.6877534  43.8857257  54.8281068  29.2267534
  44.7747257  53.6941068  23.8987534  44.4837257  54.4661068  23.0007534
  45.9087257  52.9651068  23.7857534  46.1067257  52.3801068  24.5877534
  46.8827257  53.0121068  22.6917534  47.3937257  53.9721068  22.7637534
  47.7667257  51.7931068  22.9097534  47.1777257  50.8791068  22.9867534
  48.3157257  51.8801068  23.8477534  48.4937257  51.8561068  22.0997534
  46.1647257  52.9031068  21.3437534  46.3937257  53.8351068  20.5397534
  45.2597257  51.9091068  21.1157534  45.2327257  51.0521068  21.6557534
  44.6487257  51.8671068  19.7357534  45.4837257  51.7161068  19.0507534
  43.7327257  50.6581068  19.7757534  44.2307257  49.7471068  20.1087534
  42.8807257  50.9111068  20.4067534  43.3327257  50.2841068  18.3257534
  43.0197257  51.1381068  17.7267534  44.2197257  49.9171068  17.8087534
  42.2217257  49.2331068  18.2707534  41.9527257  49.0991068  17.2227534
  42.6737257  48.3051068  18.6207534  40.9417257  49.6271068  18.9377534
  41.0327257  49.6461068  20.0237534  40.6017257  50.6391068  18.7167534
  39.8527257  48.8091068  18.5197534  39.0057257  49.2981068  18.7717534
  39.8177257  47.9781068  19.0927534  39.8377257  48.6531068  17.5217534
  43.8627257  53.1351068  19.4097534  43.5597257  53.5251068  18.2917534
  43.3317257  53.8401068  20.4387534  43.4847257  53.3751068  21.3257534
  42.5667257  55.1041068  20.4437534  41.8367257  55.1451068  19.6357534
  41.7557257  55.3271068  21.6947534  42.3757257  55.4821068  22.5777534
  40.7677257  56.4371068  21.4717534  40.0557257  56.3621068  22.2937534
  40.2897257  56.4061068  20.4917534  41.2987257  57.3621068  21.6957534
  40.9637257  54.2181068  22.0977534  41.5007257  53.4691068  22.3657534
  43.4167257  56.2991068  20.1977534  43.0267257  57.0681068  19.3657534
  44.6027257  56.3571068  20.7877534  44.8677257  55.5991068  21.4057534
  45.6337257  57.4131068  20.6037534  45.7697257  57.5561068  19.5317534
  45.2387257  58.7481068  21.2497534  44.2677257  59.0841068  20.8877534
  45.1597257  58.6301068  22.3307534  46.2627257  59.6841068  20.9787534
  46.0017257  59.8791068  20.0757534  46.9327257  57.0581068  21.3157534
  46.9507257  56.6311068  22.4707534  48.0687257  57.4571068  20.6967534
  48.0767257  58.0321068  19.8627534  49.3187257  57.4111068  21.4717534
  49.3647257  56.4871068  22.0487534  50.5447257  57.2481068  20.5397534
  50.8967257  58.1811068  20.1017534  51.3097257  57.1081068  21.3047534
  50.6927257  55.9361068  19.6527534  50.1667257  56.2061068  18.7367534
  52.0667257  55.7321068  19.1117534  52.1367257  54.9371068  18.3687534
  52.7667257  55.3191068  19.8377534  52.4177257  56.6991068  18.7517534
  50.2187257  54.7031068  20.3327534  50.7647257  54.5981068  21.2697534
  49.1637257  54.6311068  20.5987534  50.3897257  53.8611068  19.6627534
  49.4607257  58.5471068  22.4887534  50.4197257  58.4361068  23.2187534
  48.5707257  59.5331068  22.5707534  47.7807257  59.4211068  21.9467534
  48.5647257  60.7691068  23.3867534  49.5377257  60.9111068  23.8567534
  48.3437257  61.9531068  22.3607534  47.4947257  61.7451068  21.7097534
  48.2357257  62.9101068  22.8707534  49.4657257  62.1011068  21.4417534
  49.5297257  61.6161068  20.3007534  50.4577257  62.8161068  21.8487534
  50.2687257  63.6251068  22.4267534  51.2877257  62.7421068  21.2717534
  47.5357257  60.7241068  24.5497534  47.2667257  61.7411068  25.1857534
  47.1267257  59.4741068  24.7677534  47.3977257  58.7151068  24.1537534
  46.1897257  59.1511068  25.9817534  46.1677257  60.0721068  26.5657534
  44.7807257  58.6831068  25.5417534  44.8707257  57.9451068  24.7457534
  44.1497257  58.2841068  26.3357534  44.0557257  59.8601068  24.8867534
  44.6507257  60.3691068  24.1287534  42.7367257  59.4701068  24.2297534
  43.0337257  58.6591068  23.5637534  42.2927257  60.3391068  23.7457534
  42.0677257  59.0711068  24.9917534  43.7647257  60.9371068  25.9237534
  43.6157257  60.4251068  26.8737534  44.6657257  61.5511068  25.9467534
  42.7787257  61.3411068  25.6907534  46.8567257  58.1081068  26.7767534
  47.2767257  57.2061068  26.2007534  46.7317257  58.1851068  28.0887534
  46.3557257  59.0201068  28.5207534  47.0957257  56.9941068  28.9097534
  46.8837257  56.0601068  28.3877534  48.5807257  56.9861068  29.2767534
  48.8617257  56.0381068  29.7357534  49.1057257  57.1811068  28.3417534
  49.0157257  57.9601068  30.2007534  48.9937257  58.7981068  29.7337534
  46.1647257  56.9641068  30.1667534  45.0527257  57.5341068  30.1707534
  46.6067257  56.2611068  31.2067534  47.5097257  55.8191068  31.0827534
  46.0277257  56.1251068  32.4917534  45.5997257  57.0781068  32.8007534
  44.7817257  55.2111068  32.4857534  43.9457257  55.7211068  32.0077534
  44.9267257  54.2901068  31.9207534  44.3137257  54.8211068  33.9047534
  43.6557257  55.8121068  34.6357534  43.4937257  56.8041068  34.2397534
  43.3267257  55.5981068  35.9877534  42.9087257  56.3551068  36.6337534
  43.5027257  54.2721068  36.5187534  43.2177257  54.1031068  37.5467534
  43.9957257  53.2451068  35.7497534  44.0727257  52.2491068  36.1617534
  44.4347257  53.5471068  34.4617534  44.8577257  52.7661068  33.8467534
  47.1217257  55.7691068  33.4817534  47.8047257  54.8601068  33.1987534
  47.2507257  56.4111068  34.6767534  46.5977257  57.6811068  35.1357534
  45.5057257  57.6921068  35.0297534  47.0697257  58.5621068  34.6857534
  47.0297257  57.8461068  36.5947534  46.3097257  57.2871068  37.1917534
  47.0947257  58.8561068  37.0007534  48.4317257  57.2981068  36.5217534
  48.8727257  57.0531068  37.4887534  49.1057257  57.9261068  35.9397534
  48.2257257  55.9901068  35.7277534  49.2287257  55.7891068  35.3497534
  47.7107257  54.8441068  36.5967534  47.3857257  55.0371068  37.7667534
  47.6907257  53.5861068  36.1187534  47.9797257  53.4621068  35.1557534
  47.2737257  52.4121068  36.8347534  46.5997257  52.7471068  37.6227534
  46.6517257  51.8461068  36.1407534  48.3587257  51.4931068  37.3957534
  48.0857257  50.7001068  38.2877534  49.6367257  51.6141068  36.8967534
  49.8307257  52.3951068  36.2817534  50.7887257  50.7721068  37.1897534
  51.4267257  51.3251068  37.8797534  50.4297257  49.8621068  37.6717534
  51.6197257  50.4331068  35.9287534  51.3557257  50.9171068  34.8137534
  52.5677257  49.5271068  36.1837534  52.7817257  49.1631068  37.1047534
  53.5347257  49.1121068  35.1417534  53.3147257  49.5861068  34.1847534
  54.9437257  49.5511068  35.5187534  55.0387257  50.6251068  35.6807534
  55.3177257  49.0401068  36.8507534  56.3777257  49.0621068  37.1037534
  54.7887257  49.7001068  37.5377534  54.9917257  48.0011068  36.7977534
  55.8637257  49.0271068  34.4687534  55.6257257  49.3801068  33.4647534
  55.8047257  47.9411068  34.5397534  56.9147257  49.2511068  34.6517534
  53.2947257  47.6021068  34.6877534  53.4297257  47.2901068  33.5187534
  53.0027257  46.7001068  35.6367534  52.7317257  47.0231068  36.5577534
  52.9107257  45.2741068  35.3677534  53.7017257  45.0611068  34.6477534
  53.1177257  44.4901068  36.6787534  54.0767257  44.7451068  37.1287534
  53.0037257  43.4171068  36.5277534  52.3437257  44.7281068  37.4087534
  51.4897257  44.9731068  34.7097534  50.5427257  44.7921068  35.4117534
  51.4727257  44.7581068  33.3887534  52.3847257  44.7931068  32.9467534
  50.2347257  44.7111068  32.6207534  49.7337257  45.6731068  32.7317534
  50.5587257  44.5251068  31.0887534  49.8007257  44.8461068  30.3747534
  51.3667257  45.1941068  30.7917534  51.0747257  43.1801068  30.7537534
  52.2927257  42.6631068  31.1047534  53.1217257  43.1311068  31.4407534
  52.3687257  41.4071068  30.6317534  53.2027257  40.7291068  30.7377534
  51.2187257  41.0201068  30.0127534  50.3947257  42.1971068  30.0737534
  49.4087257  42.2981068  29.6437534  49.2157257  43.5861068  33.1347534
  48.1357257  43.5311068  32.6137534  49.7017257  42.6321068  33.9097534
  50.5197257  42.8491068  34.4647534  49.0407257  41.4081068  34.3267534
  48.4157257  41.0191068  33.5237534  50.1527257  40.4361068  34.8217534
  49.5787257  39.5841068  35.1867534  51.1357257  40.0831068  33.6327534
  50.5897257  40.0091068  32.6917534  51.6067257  39.1171068  33.8177534
  51.9597257  40.7861068  33.5127534  51.0287257  41.0371068  35.7507534
  51.3217257  40.3421068  36.3447534  47.9897257  41.6471068  35.3777534
  47.1097257  40.8191068  35.6417534  48.0907257  42.8261068  36.0667534
  48.8777257  43.4281068  35.8537534  47.1687257  43.1401068  37.1707534
  47.2427257  42.3611068  37.9287534  47.6867257  44.4591068  37.8217534
  47.8877257  45.1121068  36.9727534  46.6597257  45.1591068  38.7357534
  47.1827257  45.9971068  39.1957534  46.2337257  44.5991068  39.5687534
  45.8987257  45.4981068  38.0327534  48.9407257  44.2451068  38.6917534
  48.6167257  43.8251068  39.6437534  49.5917257  43.5111068  38.2167534
  49.7927257  45.4561068  38.8847534  49.5717257  46.0941068  38.0287534
  50.8357257  45.1671068  39.0137534  49.4207257  46.0101068  39.7467534
  45.6987257  43.1631068  36.8097534  45.3487257  43.6691068  35.7377534
  44.8227257  42.6781068  37.6977534  45.2067257  42.3361068  38.5707534
  43.3827257  42.7241068  37.4957534  43.1617257  42.5691068  36.4397534
  42.8367257  42.1561068  38.2487534  42.9717257  44.2211068  37.7637534
  43.4517257  44.9331068  38.6387534  42.0517257  44.7141068  36.9197534
  41.7557257  44.0731068  36.1927534  41.6147257  46.0841068  36.9497534
  42.4327257  46.8041068  36.9227534  40.7777257  46.4101068  35.7487534
  40.1217257  45.5511068  35.6067534  39.9437257  47.6051068  35.9607534
  40.4507257  48.3911068  36.5207534  39.6747257  48.0111068  34.9857534
  39.0157257  47.3651068  36.4797534  41.8087257  46.6631068  34.5627534
  42.4007257  47.5661068  34.7117534  41.2357257  46.5641068  33.6407534
  42.5077257  45.8271068  34.5907534  40.9087257  46.3841068  38.3137534
  41.1857257  47.3511068  39.0437534  39.9827257  45.5231068  38.7457534
  39.5687257  44.9081068  38.0557534  39.2057257  45.5821068  39.9527534
  38.4827257  46.3951068  39.8827534  38.7377257  44.6031068  40.0547534
  40.0037257  45.9711068  41.2017534  39.9267257  47.0381068  41.8937534
  40.8137257  45.0201068  41.6567534  40.8567257  44.1921068  41.0747534
  41.7277257  45.0991068  42.8017534  41.1747257  45.2391068  43.7307534
  42.2477257  44.1421068  42.8547534  42.8047257  46.1181068  42.7427534
  43.5537257  46.2291068  43.7137534  42.9317257  46.9381068  41.6877534
  42.3787257  46.6661068  40.8847534  43.7877257  48.0421068  41.5627534
  44.4597257  47.9101068  42.4107534  44.5407257  48.0331068  40.1537534
  44.8897257  47.0391068  39.8757534  43.7847257  48.3071068  39.4177534
  45.6327257  49.0861068  40.0357534  46.0327257  49.0181068  39.0237534
  45.1087257  50.0421068  40.0307534  46.7357257  49.0461068  41.1637534
  46.7077257  48.2741068  42.0917534  47.7537257  49.8481068  40.9487534
  48.5657257  49.7751068  41.5507534  47.8447257  50.3021068  40.0477534
  43.0367257  49.3811068  41.7927534  43.5347257  50.2991068  42.3837534
  41.9307257  49.5381068  41.1627534  41.6157257  48.8331068  40.5077534
  41.0897257  50.7241068  41.2727534  41.6377257  51.6531068  41.1197534
  40.0487257  50.8251068  40.0527534  39.3337257  50.0141068  40.1837534
  39.3947257  51.6931068  40.1307534  40.6577257  50.7521068  38.6477534
  40.9157257  49.6971068  38.5567534  39.4997257  50.8671068  37.6597534
  38.9637257  51.8141068  37.7217534  38.8067257  50.0271068  37.7137534
  39.9147257  50.8711068  36.6517534  41.8747257  51.6491068  38.3237534
  42.2557257  51.4741068  37.3177534  41.6427257  52.7071068  38.4407534
  42.6157257  51.3991068  39.0837534  40.3217257  50.8241068  42.6107534
  39.9937257  51.8811068  43.0957534  40.0667257  49.6201068  43.2117534
  40.2787257  48.7541068  42.7297534  39.5707257  49.3611068  44.6037534
  38.7997257  50.0801068  44.8817534  39.1077257  48.3781068  44.5277534
  40.5637257  49.3341068  45.6827534  40.2077257  49.4311068  46.8577534
  41.8307257  49.1261068  45.3157534  42.1127257  49.2101068  44.3467534
  42.8817257  48.7691068  46.2337534  42.5187257  48.2661068  47.1307534
  43.6487257  48.1941068  45.7147534  43.8037257  49.8751068  46.7697534
  44.7077257  49.6261068  47.5087534  43.5737257  51.0981068  46.3477534
  42.7067257  51.1731068  45.8307534  44.3867257  52.2651068  46.6067534
  43.7687257  53.1631068  46.6277534  44.7627257  52.2401068  47.6297534
  45.5057257  52.5051068  45.6217534  46.5997257  52.9881068  45.8927534
  45.3167257  52.0171068  44.3577534  44.3537257  51.9761068  44.0457534
  46.4547257  51.6191068  43.5227534  46.9427257  50.7471068  43.9597534
  46.0807257  51.3611068  42.5327534  47.5457257  52.6701068  43.1907534
  47.2857257  53.7621068  42.7367534  48.8137257  52.3081068  43.2627534
  49.0197257  51.3331068  43.4457534  49.9427257  53.1731068  42.8017534
  49.6597257  54.1731068  43.1317534  51.2067257  52.7791068  43.4687534
  51.2537257  53.0691068  44.5187534  51.2937257  51.6931068  43.5067534
  52.4897257  53.4231068  42.8227534  52.7037257  54.8771068  42.7777534
  51.9097257  55.5021068  43.1607534  53.9097257  55.3261068  42.3627534
  54.1737257  56.3741068  42.3567534  54.8737257  54.4231068  42.0057534
  56.0787257  54.7741068  41.4857534  56.2467257  55.7151068  41.5727534
  54.7567257  53.0251068  42.1447534  55.5667257  52.4191068  41.7657534
  53.5037257  52.4691068  42.5067534  53.3487257  51.4091068  42.6427534
  50.0877257  53.0941068  41.2607534  50.2157257  52.0301068  40.7397534
  50.1617257  54.2171068  40.5617534  50.2167257  55.1061068  41.0437534
  50.1557257  54.2331068  39.1467534  49.3557257  53.6001068  38.7607534
  49.9177257  55.2551068  38.8507534  51.4187257  54.0351068  38.3947534
  51.4427257  54.0711068  37.1797534  52.4987257  53.6701068  39.0547534
  52.4107257  53.4681068  40.0437534  53.8907257  53.8921068  38.5687534
  54.5647257  53.7481068  39.4137534  54.2597257  52.7201068  37.6107534
  54.1867257  51.8321068  38.2387534  53.5857257  52.7651068  36.7547534
  55.6237257  52.9751068  36.9577534  55.7347257  53.8071068  35.7767534
  54.8417257  53.9751068  35.1927534  57.0387257  53.9321068  35.1707534
  57.0947257  54.3781068  34.1887534  58.1777257  53.3551068  35.7717534
  59.3827257  53.5911068  35.2157534  60.0837257  53.0271068  35.5497534
  58.0537257  52.6651068  36.9677534  58.9417257  52.2611068  37.4297534
  56.8517257  52.5921068  37.6847534  56.7057257  52.1211068  38.6467534
  54.2007257  55.2891068  38.1087534  55.1127257  55.8351068  38.6817534
  53.5777257  55.8771068  37.0807534  52.7327257  55.4691068  36.6987534
  53.8397257  57.2331068  36.5857534  54.9237257  57.3471068  36.5617534
  53.2997257  57.3831068  35.1327534  53.5677257  58.3621068  34.7357534
  53.6807257  56.6191068  34.4547534  51.8297257  57.2651068  35.1727534
  51.4597257  57.2291068  34.2877534  53.4007257  58.4281068  37.5107534
  53.4897257  59.5921068  37.1537534  52.9997257  58.1031068  38.7887534
  53.1337257  57.1121068  38.9497534  52.2037257  58.8651068  39.8137534
  51.1947257  58.8531068  39.3997534  52.0797257  58.2001068  41.1527534
  53.0277257  57.7381068  41.4317534  51.6657257  59.0411068  42.3557534
  50.7467257  59.5781068  42.1227534  52.4537257  59.7731068  42.5357534
  51.5597257  58.4211068  43.2457534  51.0637257  57.2921068  40.9127534
  50.2667257  57.8281068  40.9267534  52.6967257  60.3661068  39.8977534
  51.8717257  61.2511068  39.8187534  54.0037257  60.6631068  39.7857534
  54.5477257  59.8351068  39.5747534  54.5277257  62.0321068  39.8647534
  54.3817257  62.4041068  40.8787534  56.1017257  61.9801068  39.6977534
  56.4127257  61.2511068  38.9487534  56.5047257  62.9661068  39.4687534
  56.6747257  61.4621068  40.9897534  56.3307257  62.1571068  41.7557534
  56.2027257  60.5131068  41.2427534  58.2277257  61.4611068  41.1227534
  58.5737257  60.8151068  41.9287534  58.7017257  61.0951068  40.2117534
  58.6687257  62.8141068  41.6547534  58.3947257  63.0031068  42.6087534
  59.2067257  63.8371068  41.0367534  59.4697257  63.8391068  39.7897534
  59.6667257  62.9361068  39.3807534  59.5857257  64.7371068  39.3437534
  59.4487257  64.8751068  41.7277534  59.3327257  64.8551068  42.7317534
  59.7297257  65.7701068  41.3537534  53.9587257  63.1111068  38.8617534
  54.0817257  64.2421068  39.1517534  53.2677257  62.6991068  37.8457534
  52.9737257  61.7361068  37.7387534  52.6247257  63.5691068  36.8027534
  53.0787257  64.5461068  36.9697534  53.1087257  63.2041068  35.4057534
  54.1857257  63.0381068  35.4337534  52.5967257  62.2951068  35.0907534
  52.8587257  64.2621068  34.3427534  51.7937257  64.2701068  34.1097534
  53.0817257  65.2261068  34.8007534  53.6127257  63.8971068  33.1027534
  54.6687257  63.7641068  33.3387534  53.2167257  62.9571068  32.7167534
  53.3827257  64.9321068  31.9837534  53.9117257  64.5351068  31.1177534
  52.3177257  65.0571068  31.7897534  53.8837257  66.3241068  32.2957534
  54.7407257  66.2841068  32.8277534  53.1737257  66.7031068  32.9067534
  54.0047257  66.9361068  31.5017534  51.1027257  63.6471068  36.8557534
  50.4667257  64.4991068  36.1607534  50.4177257  62.7441068  37.6547534
  50.9327257  62.0011068  38.1117534  48.9827257  62.4791068  37.4807534
  48.4177257  63.2951068  37.0287534  48.8127257  61.3891068  36.4517534
  49.1737257  60.4191068  36.7907534  47.7737257  61.2841068  36.1387534
  49.4867257  61.6091068  35.0907534  48.9977257  62.6931068  34.2907534
  48.1397257  63.1871068  34.7217534  49.6157257  63.0091068  33.0557534
  49.2877257  63.8811068  32.5097534  50.6477257  62.2371068  32.5687534
  51.0637257  62.5181068  31.2917534  50.4377257  63.0831068  30.8337534
  50.9107257  61.0121068  33.2197534  51.5747257  60.2731068  32.7967534
  50.3917257  60.7221068  34.4987534  50.6647257  59.8551068  35.0817534
  48.2897257  61.9981068  38.6747534  47.0567257  61.9721068  38.8307534
  49.0357257  61.5251068  39.6247534  50.0457257  61.5821068  39.5767534
  48.5807257  60.9981068  40.9007534  49.3787257  61.1681068  41.6237534
  47.6547257  61.5021068  41.1797534  48.2627257  59.4951068  40.8147534
  48.8207257  58.8361068  39.9127534  47.5787257  58.9881068  41.8427534
  47.0557257  59.6891068  42.3547534  47.2507257  57.5821068  42.0107534
  48.1057257  56.9371068  41.8077534  46.8637257  57.4021068  43.5467534
  45.9447257  57.9571068  43.7327534  46.7197257  56.3221068  43.5667534
  47.9217257  57.8481068  44.5777534  48.1157257  58.9181068  44.4977534
  47.4497257  57.8451068  46.0227534  48.2397257  58.0421068  46.7467534
  47.0247257  56.8691068  46.2577534  46.6907257  58.5661068  46.3247534
  49.2567257  57.2671068  44.5717534  49.5717257  57.1071068  43.5397534
  49.9997257  57.8511068  45.1147534  49.1777257  56.2341068  44.9117534
  46.0877257  57.0401068  41.1657534  45.2777257  57.7401068  40.5977534
  46.0057257  55.7521068  41.0607534  46.6657257  55.1611068  41.5517534
  45.0167257  55.0861068  40.1797534  45.1727257  55.3841068  39.1427534
  45.1857257  53.5971068  40.1947534  45.2827257  53.2031068  41.2067534
  46.1097257  53.2981068  39.6997534  44.3067257  53.1301068  39.7507534
  43.5937257  55.4541068  40.5307534  42.7827257  56.0181068  39.7627534
  43.3817257  55.3231068  41.8177534  44.0967257  54.8731068  42.3757534
  42.1597257  55.7231068  42.5457534  41.4127257  55.1011068  42.0517534
  42.2437257  55.2541068  43.9947534  43.0997257  55.6381068  44.5507534
  41.3357257  55.6571068  44.4417534  42.3937257  53.8851068  44.0537534
  41.7367257  53.5901068  44.6887534  41.7937257  57.2011068  42.3977534
  40.6097257  57.5301068  42.3127534  42.8057257  58.0911068  42.3827534
  43.7527257  57.7431068  42.4747534  42.5977257  59.5331068  42.2187534
  42.0527257  59.8911068  43.0917534  43.9407257  60.3121068  42.2707534
  44.5307257  59.9781068  41.4167534  43.7997257  61.3821068  42.1157534
  44.6597257  60.2731068  43.5617534  44.0337257  60.1231068  44.6227534
  45.9107257  60.4731068  43.5947534  41.8827257  59.8971068  40.8937534
  41.4817257  61.0281068  40.6277534  41.8287257  59.0151068  39.9517534
  42.3017257  58.1511068  40.1887534  41.4667257  59.2001068  38.5557534
  41.0557257  60.1921068  38.3697534  42.8167257  59.0581068  37.7637534
  43.2237257  58.0901068  38.0567534  42.5227257  59.0241068  36.7147534
  43.8867257  60.1851068  37.9137534  43.6937257  61.2291068  37.3417534
  44.9257257  59.9861068  38.7227534  44.9967257  59.0611068  39.1297534
  45.6717257  60.6651068  38.8047534  40.2857257  58.2201068  38.2407534
  39.9537257  58.0981068  37.0717534  39.7447257  57.4941068  39.2447534
  39.9797257  57.7501068  40.1957534  38.4487257  56.7891068  39.1157534
  38.4907257  56.2541068  38.1677534  38.2687257  55.6581068  40.1297534
  38.4247257  56.1231068  41.1037534  36.8627257  54.9501068  40.2287534
  36.5227257  54.6061068  39.2517534  36.7707257  54.0781068  40.8777534
  36.1127257  55.6811068  40.5287534  39.2727257  54.6071068  39.9037534
  39.0337257  53.9961068  39.0337534  39.2857257  53.9471068  40.7707534
  40.2427257  55.0911068  39.7897534  37.2907257  57.7471068  39.2077534
  37.2567257  58.6001068  40.0697534  36.3807257  57.7261068  38.2087534
  36.4747257  57.1361068  37.3907534  35.1797257  58.5851068  38.1207534
  35.2967257  59.5121068  38.6827534  34.9227257  58.9461068  36.6557534
  34.6667257  58.0101068  36.1587534  33.7547257  59.9071068  36.4217534
  33.4707257  59.9751068  35.3717534  34.0377257  60.9071068  36.7507534
  32.8277257  59.5621068  36.8787534  36.2497257  59.2991068  35.8807534
  36.4737257  60.2511068  36.3627534  37.1217257  58.6861068  36.1087534
  36.1227257  59.5431068  34.3967534  35.9747257  58.6111068  33.8507534
  37.0737257  60.0001068  34.1237534  35.2857257  60.2141068  34.2027534
  33.8987257  58.0271068  38.7817534  33.1917257  58.7741068  39.4087534
  33.5957257  56.7251068  38.5787534  34.2787257  56.1331068  38.1207534
  32.3357257  56.0201068  39.0927534  32.0217257  56.5341068  40.0017534
  31.2007257  56.2291068  37.9887534  31.3067257  57.2641068  37.6637534
  31.4727257  55.5701068  37.1637534  29.7067257  56.1301068  38.3827534
  28.7897257  56.7741068  37.7527534  29.3767257  55.4451068  39.3687534
  32.5987257  54.4341068  39.2407534  33.6647257  54.0301068  38.7757534
  31.6297257  53.7711068  39.8407534  30.8407257  54.2201068  40.2897534
  31.6927257  52.3331068  40.2127534  32.3887257  51.7661068  39.5947534
  32.2337257  52.3011068  41.6177534  31.6117257  52.9191068  42.2647534
  33.2707257  52.6161068  41.7377534  32.1557257  51.3191068  42.0847534
  30.2767257  51.6641068  40.1837534  29.3297257  52.2911068  40.6007534
  30.2837257  50.3951068  39.7507534  31.1417257  50.0071068  39.3767534
  29.0637257  49.5691068  39.7517534  28.2207257  50.2411068  39.9087534
  28.8717257  49.0011068  38.4147534  29.7297257  48.3651068  38.1977534
  27.9997257  48.3491068  38.4647534  28.7937257  49.9061068  37.1677534
  28.1977257  50.7461068  37.5247534  29.7587257  50.2531068  36.7997534
  28.0347257  49.3361068  36.0057534  27.1637257  48.4941068  36.1927534
  28.3237257  49.7121068  34.8317534  27.6347257  49.4961068  34.1217534
  28.9317257  50.5151068  34.7197534  29.0797257  48.6071068  40.9317534
  29.3457257  47.4441068  40.8097534  28.8297257  49.1851068  42.1357534
  28.4767257  50.1271068  42.0157534  28.5527257  48.4631068  43.4417534
  29.4327257  47.8351068  43.5817534  28.6477257  49.5451068  44.5217534
  29.6827257  49.8811068  44.4717534  28.0987257  50.4151068  44.1617534
  28.2467257  49.1851068  46.0117534  27.1887257  48.9301068  45.9537534
  29.1487257  48.1121068  46.6237534  30.1487257  48.5281068  46.7467534
  29.1347257  47.2291068  45.9857534  28.7527257  47.7941068  47.5887534
  28.3467257  50.5561068  46.7547534  29.4017257  50.8321068  46.7487534
  27.7127257  51.2651068  46.2207534  27.9287257  50.3151068  47.7317534
  27.1567257  47.6991068  43.4437534  26.1137257  48.2971068  43.3407534
  27.2437257  46.3391068  43.5997534  28.1867257  45.9721068  43.5537534
  26.0367257  45.5041068  43.7317534  25.2867257  45.9511068  43.0777534
  26.2547257  44.0091068  43.2437534  27.0097257  43.6621068  43.9487534
  24.9517257  43.2391068  43.2287534  24.6007257  43.0271068  44.2387534
  24.8967257  42.3031068  42.6717534  24.1777257  43.8741068  42.7987534
  26.9087257  43.9881068  41.7987534  26.2927257  44.4861068  41.0497534
  27.8147257  44.5781068  41.9327534  27.3797257  42.6311068  41.3507534
  27.6707257  42.1431068  42.2807534  28.1877257  42.6071068  40.6187534
  26.4927257  42.0731068  41.0497534  25.6287257  45.5581068  45.1797534
  26.3727257  45.5071068  46.1187534  24.3527257  45.6751068  45.4547534
  23.7307257  45.9911068  44.7197534  23.6957257  45.4521068  46.6977534
  24.3967257  45.4351068  47.5317534  22.8647257  46.7171068  46.9817534
  23.5297257  47.5781068  46.9077534  22.0907257  46.7891068  46.2177534
  22.2947257  46.7201068  48.3577534  21.6717257  47.7791068  48.6197534
  22.2627257  45.7561068  49.1417534  22.8297257  44.2191068  46.6397534
  22.0957257  43.9811068  45.7547534  22.9737257  43.3231068  47.6647534
  23.6357257  43.6671068  48.3487534  22.2037257  42.1261068  47.8767534
  22.3807257  41.6411068  46.9167534  22.9187257  41.4201068  49.0077534
  22.5387257  40.4821068  49.4147534  22.9707257  42.1441068  49.8207534
  23.9237257  41.1911068  48.6557534  20.7037257  42.3301068  48.1797534
  19.9127257  41.4031068  48.1837534  20.2657257  43.5681068  48.3787534
  20.9147257  44.3421068  48.4517534  18.8647257  43.9611068  48.1607534
  18.0787257  43.2521068  48.4217534  18.7207257  45.3951068  48.8847534
  19.5187257  46.0861068  48.6117534  17.8127257  45.9531068  48.6567534
  18.8397257  45.1851068  50.4167534  17.9467257  44.6441068  50.7317534
  19.8267257  44.7681068  50.6157534  18.8657257  46.5761068  51.0667534
  18.1537257  47.1871068  50.5117534  18.5617257  46.5041068  52.1117534
  20.1277257  47.3051068  50.8927534  20.6777257  46.9961068  50.1037534
  20.6997257  48.2241068  51.6557534  20.2707257  48.7331068  52.7577534
  19.3227257  48.5521068  53.0547534  20.8147257  49.4461068  53.2227534
  21.8497257  48.6701068  51.2887534  22.2467257  48.2701068  50.4507534
  22.2977257  49.4281068  51.7827534  18.4817257  44.2441068  46.6477534
  17.5677257  45.0581068  46.3987534  19.0097257  43.4801068  45.6497534
  19.7127257  42.8311068  45.9827534  18.5927257  43.4021068  44.2897534
  18.9077257  42.4751068  43.8107534  17.5137257  43.4951068  44.1747534
  19.0517257  44.3991068  43.2347534  18.6517257  44.1611068  42.0987534
  19.8937257  45.3901068  43.4677534  20.3757257  45.2791068  44.3507534
  20.1827257  46.5131068  42.5767534  19.7567257  46.2541068  41.6067534
  19.2367257  47.6721068  42.9107534  19.2397257  48.4101068  42.1087534
  18.2227257  47.2831068  42.8287534  19.3817257  48.2891068  44.3187534
  18.5027257  48.9301068  44.3947534  19.2567257  47.5021068  45.0617534
  20.7017257  49.0491068  44.6817534  21.6097257  48.4731068  44.5047534
  20.6897257  49.9571068  44.0777534  20.7017257  49.3911068  46.1157534
  21.1237257  48.6301068  46.6287534  20.2437257  50.4051068  46.8217534
  19.7247257  51.4541068  46.2637534  19.7977257  51.4561068  45.2567534
  19.2647257  52.1421068  46.8427534  20.2487257  50.3241068  48.0657534
  20.6897257  49.5141068  48.4767534  19.7937257  50.9271068  48.7367534
  21.6987257  46.8281068  42.4467534  22.5347257  46.1281068  43.0287534
  22.0717257  47.8381068  41.6877534  21.3327257  48.3321068  41.2027534
  23.5077257  48.3221068  41.6057534  24.0457257  47.9551068  42.4797534
  24.1717257  47.8461068  40.3037534  23.7207257  48.4051068  39.4847534
  25.6587257  48.1701068  40.2797534  25.7947257  49.1371068  40.7637534
  25.8737257  48.2521068  39.2137534  26.1317257  47.3451068  40.8127534
  24.0157257  46.3141068  40.1157534  24.5037257  45.7331068  40.8987534
  22.9457257  46.1091068  40.1357534  24.6847257  45.8191068  38.7487534
  24.4687257  44.7521068  38.6857534  25.7657257  45.9141068  38.8517534
  24.2827257  46.3331068  37.8757534  23.4947257  49.8451068  41.6967534
  22.7087257  50.6191068  41.1737534  24.2907257  50.3811068  42.6217534
  24.9187257  49.7161068  43.0577534  24.3507257  51.7811068  43.0277534
  23.3697257  52.2231068  42.8537534  24.8477257  51.8571068  44.4137534
  25.6737257  51.1461068  44.4327534  25.2437257  52.8711068  44.4697534
  24.0017257  51.4371068  45.6387534  23.3797257  50.5861068  45.3587534
  24.7127257  51.0391068  46.8417534  25.1817257  50.0651068  46.6997534
  23.9507257  50.9701068  47.6177534  25.3747257  51.8671068  47.0967534
  23.1027257  52.5541068  46.0327534  22.3607257  52.2611068  46.7757534
  23.6917257  53.3601068  46.4697534  22.5757257  53.0101068  45.1937534
  25.3507257  52.4551068  42.0707534  26.2747257  51.8411068  41.5187534
  25.2177257  53.7621068  41.8497534  24.3207257  54.1271068  42.1477534
  26.1917257  54.6431068  41.1167534  27.0727257  54.0311068  40.9217534
  25.5717257  55.2001068  39.8357534  26.3237257  55.7191068  39.2417534
  25.2057257  54.3571068  39.2507534  24.4067257  56.2121068  40.0677534
  23.8837257  56.4941068  41.2317534  23.7237257  56.5731068  39.0857534
  26.7507257  55.7121068  42.0537534  26.2027257  55.8691068  43.1527534
  27.7587257  56.3961068  41.5597534  28.3037257  56.1471068  40.7427534
  28.4047257  57.4451068  42.3637534  28.9627257  57.0271068  43.2017534
  29.4257257  58.1791068  41.5557534  30.1237257  57.4741068  41.1047534
  28.9967257  58.7981068  40.7677534  30.2237257  59.1031068  42.3947534
  29.6887257  59.9131068  42.8897534  30.8037257  58.5211068  43.1107534
  31.2817257  59.8691068  41.5737534  31.8637257  59.0461068  41.1597534
  30.8657257  60.4241068  40.7327534  32.0477257  60.8571068  42.3887534
  31.5587257  61.1521068  43.2217534  33.3107257  61.3001068  42.2147534
  33.9567257  61.0431068  41.1117534  33.4557257  60.4581068  40.4577534
  34.7707257  61.5951068  40.8847534  33.9787257  61.8951068  43.1667534
  33.4477257  62.1341068  43.9927534  34.9857257  61.9711068  43.1467534
  27.4187257  58.3781068  42.9847534  27.4507257  58.5921068  44.2097534
  26.5347257  58.8731068  42.1887534  26.6457257  58.6631068  41.2037534
  25.4827257  59.8161068  42.4937534  25.8557257  60.7051068  43.0027534
  24.6607257  60.1541068  41.2147534  25.2757257  60.3591068  40.3387534
  24.0057257  59.3121068  40.9917534  23.9327257  61.4271068  41.5167534
  23.5017257  61.4901068  42.5157534  24.6307257  62.2611068  41.4337534
  22.8207257  61.7141068  40.4797534  22.4907257  62.7351068  40.6727534
  23.2637257  61.6261068  39.4877534  21.5077257  60.8911068  40.6677534
  21.9757257  59.9351068  40.4317534  21.0877257  61.1371068  41.6427534
  20.5247257  61.2971068  39.7007534  20.7577257  61.1141068  38.7357534
  20.3477257  62.2901068  39.7507534  19.6427257  60.8421068  39.8887534
  24.5967257  59.2771068  43.6267534  24.2107257  59.9821068  44.4867534
  24.2857257  57.9961068  43.6477534  24.7567257  57.4631068  42.9257534
  23.3187257  57.3361068  44.5877534  22.7007257  58.1501068  44.9667534
  22.4297257  56.2041068  44.0007534  23.1077257  55.4611068  43.5797534
  21.4137257  55.6751068  44.9627534  20.7267257  56.4551068  45.2917534
  21.8247257  55.1111068  45.7997534  20.8347257  54.9221068  44.4277534
  21.8517257  56.8481068  42.9297534  22.5697257  56.9311068  42.2977534
  24.0377257  56.8741068  45.9197534  23.5237257  57.1691068  46.9727534
  25.1717257  56.2681068  45.8047534  25.5397257  56.1591068  44.8667534
  25.9497257  55.6491068  46.8637534  25.2687257  55.1501068  47.5537534
  26.9477257  54.6311068  46.2917534  27.0747257  53.8171068  47.0057534
  26.5487257  54.1461068  45.4007534  28.3217257  55.0701068  45.9207534
  28.2267257  55.8491068  45.1637534  28.7147257  55.5941068  46.7917534
  29.4987257  53.8181068  45.3347534  28.8117257  53.2371068  43.6817534
  29.3177257  52.3291068  43.3297534  27.7267257  53.0781068  43.7177534
  29.0437257  54.0671068  43.0027534  26.6807257  56.6921068  47.7607534
  26.9427257  56.3741068  48.8757534  26.7277257  57.9981068  47.4677534
  26.4067257  58.3191068  46.5627534  27.3047257  59.0041068  48.3607534
  26.8957257  59.9101068  47.9127534  26.9737257  58.9251068  49.3957534
  28.8027257  59.0511068  48.3397534  29.5097257  58.0261068  48.3627534
  29.3127257  60.3281068  48.3407534  28.6877257  61.1261068  48.3147534
  30.7217257  60.7431068  48.2847534  31.3037257  60.3021068  47.4757534
  30.8927257  62.2371068  48.0587534  30.3607257  62.7111068  48.8827534
  31.9087257  62.5041068  48.3487534  30.4697257  62.8261068  46.6937534
  29.3997257  62.7331068  46.5087534  30.7257257  63.8791068  46.5727534
  31.1817257  62.0791068  45.5277534  30.4827257  61.5141068  44.6407534
  32.4307257  62.0101068  45.4957534  31.4867257  60.3441068  49.6237534
  32.6617257  60.5411068  49.7287534  30.8387257  59.8581068  50.6627534
  29.8387257  59.7021068  50.6207534  31.5227257  59.2001068  51.8847534
  32.4477257  59.7451068  52.0727534  30.6647257  59.3931068  53.1577534
  29.8597257  58.6611068  53.2217534  31.3017257  59.1581068  54.0107534
  30.1757257  60.8441068  53.2307534  31.0567257  61.7021068  53.0197534
  28.9897257  61.2771068  53.5727534  31.9007257  57.7571068  51.6197534
  33.0977257  57.4511068  51.7207534  31.0177257  56.9321068  51.2107534
  30.1407257  57.3481068  50.9187534  31.1787257  55.5551068  50.7337534
  31.5817257  54.9171068  51.5207534  29.8497257  54.9071068  50.3837534
  29.3137257  54.8381068  51.3297534  29.3037257  55.5751068  49.7177534
  29.9157257  53.4611068  49.8727534  30.2677257  53.4751068  48.8417534
  30.7227257  52.4641068  50.8067534  30.3487257  52.3921068  51.8277534
  31.7857257  52.7071068  50.8267534  30.6197257  51.4481068  50.4267534
  28.5447257  52.8641068  49.8967534  27.8317257  53.3191068  49.2087534
  28.5637257  51.8201068  49.5837534  28.2297257  52.8571068  50.9397534
  32.0537257  55.4851068  49.4937534  32.8107257  54.5811068  49.3097534
  31.9567257  56.4331068  48.5647534  31.0987257  56.9671068  48.6237534
  32.7717257  56.4281068  47.3187534  32.8087257  55.4461068  46.8467534
  32.0237257  57.3441068  46.3697534  31.0277257  56.9071068  46.2977534
  31.9517257  58.3921068  46.6597534  32.7187257  57.2751068  45.0627534
  32.6317257  56.1321068  44.2727534  32.1207257  55.2941068  44.7237534
  33.2317257  55.9661068  43.0277534  33.0847257  55.1161068  42.3787534
  33.9557257  57.0501068  42.5577534  34.3627257  57.0751068  41.5577534
  34.2067257  58.1401068  43.4027534  34.7787257  58.9381068  42.9537534
  33.4777257  58.3021068  44.5397534  33.6197257  59.2401068  45.0567534
  34.2527257  56.7531068  47.4507534  35.1037257  56.3161068  46.6537534
  34.5537257  57.4791068  48.5137534  33.8727257  57.7251068  49.2207534
  35.8737257  57.8051068  48.9277534  36.5547257  58.1681068  48.1567534
  35.8277257  59.0201068  49.9377534  35.5467257  59.9561068  49.4547534
  34.9017257  58.8881068  50.4977534  36.9197257  59.2351068  50.9137534
  37.9967257  59.9531068  50.6807534  38.1587257  60.4721068  49.7477534
  38.7107257  60.1181068  51.8587534  39.5817257  60.6231068  51.9427534
  38.2127257  59.3641068  52.9057534  38.6467257  58.9861068  54.2117534
  39.5567257  59.4181068  54.6017534  37.8577257  58.1591068  55.0257534
  38.2447257  57.9021068  56.0007534  36.6467257  57.5931068  54.4867534
  36.1387257  56.7611068  54.9537534  36.2147257  57.9981068  53.2127534
  35.2497257  57.6081068  52.9237534  36.9807257  58.7811068  52.3367534
  36.2837257  56.4811068  49.6097534  37.3457257  55.9961068  49.1947534
  35.5417257  55.8621068  50.5097534  34.6437257  56.2041068  50.8307534
  35.9817257  54.6901068  51.1757534  36.8607257  54.9491068  51.7667534
  34.8247257  54.2811068  52.1507534  34.5157257  53.2681068  51.8927534
  34.0257257  55.0161068  52.0587534  35.1077257  54.1281068  53.1917534
  36.3407257  53.5831068  50.2527534  37.3807257  52.9051068  50.4627534
  35.4787257  53.2281068  49.2597534  34.6517257  53.8001068  49.1387534
  35.7227257  52.0441068  48.4427534  35.9747257  51.2231068  49.1127534
  34.4657257  51.6721068  47.6417534  34.6567257  50.8541068  46.9467534
  33.3477257  51.2501068  48.5327534  32.7477257  52.1021068  48.8517534
  33.7887257  50.7371068  49.3877534  32.6067257  50.6921068  47.9607534
  33.9897257  52.7511068  46.6987534  33.3837257  53.4811068  47.2347534
  34.8057257  53.1461068  46.0937534  33.1817257  52.1051068  45.6197534
  32.3177257  51.5711068  46.0157534  33.8097257  51.5251068  44.9427534
  32.7427257  52.9091068  45.0287534  36.9777257  52.2171068  47.5967534
  37.6247257  51.2081068  47.4887534  37.3047257  53.3811068  46.9967534
  36.8437257  54.2701068  47.1507534  38.4437257  53.4451068  46.0997534
  38.4007257  52.7151068  45.2907534  38.4367257  54.8161068  45.3677534
  38.1947257  55.5391068  46.1467534  39.4407257  55.0761068  45.0307534
  37.3417257  54.8491068  44.2867534  37.5477257  54.2041068  43.4327534
  36.3727257  54.7421068  44.7747534  37.2637257  56.2491068  43.6387534
  38.2057257  56.4741068  43.1387534  36.6007257  56.1821068  42.7757534
  37.0107257  57.3991068  44.5897534  36.2907257  57.2721068  45.2867534
  37.5547257  58.5521068  44.5107534  38.5897257  58.8441068  43.7487534
  39.0177257  58.1301068  43.1767534  38.8047257  59.8301068  43.7867534
  37.1647257  59.5441068  45.3107534  36.3437257  59.4261068  45.8877534
  37.7907257  60.3061068  45.5297534  39.8167257  53.2191068  46.7607534
  40.8107257  52.9431068  46.1297534  39.9667257  53.3771068  48.1257534
  39.0547257  53.5041068  48.5497534  41.2227257  53.3071068  48.8857534
  42.0287257  52.8011068  48.3557534  41.5377257  54.3351068  49.0607534
  41.3057257  52.5671068  50.2567534  42.4147257  52.3941068  50.7917534
  40.1557257  52.0841068  50.7487534  39.2967257  52.3471068  50.2797534
  40.0737257  51.2101068  51.9837534  40.9527257  51.4861068  52.5667534
  39.1797257  51.3981068  52.5767534  40.0337257  49.7111068  51.5597534
  40.2937257  48.8581068  52.3877534  39.9087257  49.3201068  50.2557534
  39.8527257  50.0761068  49.5837534  39.8687257  47.9991068  49.7187534
  40.4817257  48.0581068  48.8197534  40.3017257  47.2921068  50.4257534
  38.3657257  47.7141068  49.5437534  37.7647257  47.2251068  50.4287534
  37.8647257  48.0181068  48.2597534  38.4727257  48.3731068  47.5307534
  36.4267257  47.9461068  47.9117534  35.8557257  48.7561068  48.3637534
  36.2367257  47.8981068  46.3527534  35.2057257  47.9711068  46.0047534
  36.6907257  47.0271068  45.8797534  36.6657257  48.7701068  45.8577534
  35.6137257  46.7311068  48.3967534  34.4917257  46.7631068  48.7767534
  36.2697257  45.5681068  48.5137534  37.2187257  45.4581068  48.1767534
  35.6857257  44.2621068  49.1087534  34.7897257  43.9531068  48.5697534
  36.4297257  43.4941068  48.9017534  35.4997257  44.3011068  50.5747534
  34.9957257  43.3681068  51.1347534  35.9827257  45.3271068  51.2897534
  36.4497257  46.0141068  50.7107534  35.5977257  45.5801068  52.6567534
  35.5137257  44.5691068  53.0537534  36.7587257  46.2831068  53.4077534
  37.5037257  45.5421068  53.6977534  37.1487257  47.1191068  52.8277534
  36.3157257  46.7371068  54.6737534  35.4707257  47.1901068  54.6197534
  34.2317257  46.2481068  52.8407534  33.8007257  46.4991068  53.9507534
  33.6207257  46.7191068  51.7887534  34.0267257  46.5501068  50.8767534
  32.4257257  47.6441068  51.6937534  31.9077257  47.6981068  52.6507534
  32.9327257  49.1051068  51.4287534  33.1647257  49.2011068  50.3677534
  32.1067257  49.7851068  51.6337534  34.0557257  49.7051068  52.2557534
  35.3587257  49.8301068  51.7917534  35.6437257  49.5401068  50.7917534
  36.3827257  50.3301068  52.5187534  37.3467257  50.3801068  52.0347534
  36.0947257  50.8181068  53.8307534  36.8957257  51.0911068  54.5017534
  34.8347257  50.5481068  54.4347534  34.6557257  50.7611068  55.4787534
  33.7517257  50.0891068  53.6407534  32.8107257  49.9251068  54.1447534
  31.3577257  47.1181068  50.7357534  30.3627257  47.8491068  50.5637534
  31.5817257  46.0321068  50.0377534  32.4517257  45.5201068  50.1217534
  30.6067257  45.4161068  49.0527534  30.0667257  44.6421068  49.5977534
  29.9467257  46.1881068  48.6567534  31.3277257  44.6421068  47.8937534
  32.4057257  44.1391068  47.9837534  30.7817257  44.6911068  46.6727534
  29.9437257  45.2471068  46.5527534  31.3227257  44.1801068  45.3587534
  32.4117257  44.1941068  45.4027534  30.9507257  42.6261068  45.2047534
  31.6807257  42.1411068  45.8527534  29.5997257  42.3381068  45.7287534
  29.2757257  41.3671068  45.3557534  28.8827257  43.0501068  45.3207534
  29.5237257  42.4501068  46.8107534  31.1917257  42.1831068  43.7167534
  30.3427257  42.6211068  43.1927534  32.1007257  42.5981068  43.2797534
  31.2397257  40.6541068  43.5427534  30.2767257  40.2421068  43.8437534
  32.0927257  40.2821068  44.1097534  31.4917257  40.4311068  42.5057534
  31.0137257  45.1251068  44.2197534  29.9157257  45.5931068  44.0047534
  32.0507257  45.4511068  43.4287534  32.9367257  45.0551068  43.7207534
  31.9817257  46.3261068  42.2487534  31.0767257  46.9331068  42.2797534
  33.0557257  47.4281068  42.4137534  33.9717257  46.8691068  42.2237534
  32.7807257  48.3481068  41.2237534  31.7647257  48.7391068  41.2667534
  33.3707257  49.2631068  41.1767534  32.9307257  47.9041068  40.2397534
  33.0377257  48.2171068  43.7187534  33.7647257  49.0211068  43.5987534
  33.4177257  47.5681068  44.5087534  32.1397257  48.8071068  43.8987534
  32.1677257  45.4531068  40.9947534  33.2277257  44.9831068  40.7807534
  31.1127257  45.3881068  40.1667534  30.2467257  45.8031068  40.4877534
  31.1567257  44.8361068  38.7747534  31.6427257  43.8681068  38.8917534
  29.6887257  44.7991068  38.1897534  29.0117257  44.3221068  38.8987534
  29.4017257  45.8501068  38.1777534  29.5197257  44.1741068  36.7767534
  30.4017257  44.3041068  36.1497534  29.2487257  42.7131068  36.9217534
  28.9347257  42.2891068  35.9677534  28.3737257  42.6141068  37.5627534
  30.1187257  42.1421068  37.2477534  28.3737257  44.8081068  36.0957534
  27.4377257  44.8111068  36.6537534  28.5897257  45.8561068  35.8847534
  28.3027257  44.2691068  35.1517534  32.0297257  45.6521068  37.7327534
  32.7687257  45.0681068  36.9957534  32.0457257  46.9831068  37.7317534
  31.3267257  47.4731068  38.2517534  32.6477257  47.7641068  36.5617534
  33.6177257  47.3051068  36.3737534  31.6827257  47.6731068  35.3267534
  30.6687257  48.0701068  35.3817534  31.6247257  46.5921068  35.2017534
  32.0817257  48.1001068  34.4057534  32.8937257  49.1821068  36.9987534
  32.1237257  49.7551068  37.7387534  33.9467257  49.8081068  36.4067534
  34.3587257  49.2241068  35.6877534  34.5427257  51.1391068  36.8067534
  33.9367257  51.5181068  37.6297534  36.0787257  50.9821068  37.2227534
  36.6407257  50.7151068  36.3277534  36.2577257  51.9991068  37.5697534
  36.2667257  50.0231068  38.3027534  36.3237257  48.6651068  38.2517534
  36.2147257  48.0301068  37.3857534  36.5327257  48.1581068  39.5117534
  36.6657257  47.1831068  39.7397534  36.5317257  49.1371068  40.4647534
  36.7507257  49.1331068  41.8827534  36.8147257  48.1881068  42.4007534
  36.5437257  50.3611068  42.5507534  36.8447257  50.4091068  43.5877534
  36.2517257  51.5991068  41.9287534  36.0257257  52.5191068  42.4467534
  36.2077257  51.5161068  40.4957534  35.8327257  52.3621068  39.9387534
  36.2987257  50.3241068  39.7237534  34.5377257  52.0891068  35.5717534
  34.9527257  51.5821068  34.5587534  34.2057257  53.4081068  35.7447534
  34.0027257  53.6551068  36.7057534  34.4587257  54.5401068  34.9087534
  34.6537257  54.2141068  33.8867534  33.1537257  55.4341068  34.9617534
  32.2687257  54.8111068  35.0917534  33.0747257  56.1551068  35.7737534
  32.9337257  56.2231068  33.6437534  33.7857257  56.8761068  33.4547534
  32.7937257  55.5221068  32.8197534  31.6117257  57.1061068  33.6847534
  30.8877257  56.6341068  34.3487534  31.8427257  58.1141068  34.0287534
  31.1137257  57.1871068  32.2637534  31.8497257  57.6091068  31.5797534
  30.7617257  56.1871068  32.0117534  29.9527257  58.0551068  32.1627534
  29.1967257  57.5701068  32.6237534  29.7387257  58.2811068  31.2017534
  30.0797257  58.9561068  32.6017534  35.7497257  55.2451068  35.3727534
  35.8227257  55.6421068  36.4947534  36.7567257  55.3611068  34.5157534
  36.7457257  54.7991068  33.6727534  38.1077257  55.9151068  34.7757534
  38.1737257  56.3421068  35.7767534  39.0887257  54.7461068  34.8017534
  40.0617257  55.1641068  35.0597534  38.6927257  53.8271068  35.9317534
  39.4647257  53.0761068  36.0957534  37.6627257  53.4721068  35.8937534
  38.7007257  54.4091068  36.8537534  39.3767257  53.8651068  33.5747534
  39.7747257  52.9111068  33.9187534  38.4597257  53.6691068  33.0207534
  40.4847257  54.3921068  32.6227534  40.1777257  55.4041068  32.3587534
  40.6697257  53.8221068  31.7127534  41.4137257  54.4091068  33.1937534
  38.5487257  57.0831068  33.7977534  38.1617257  57.0141068  32.6287534
  39.2357257  58.0691068  34.3627534  39.4997257  58.0271068  35.3397534
  39.7647257  59.1961068  33.6457534  39.0807257  59.4801068  32.8457534
  39.9627257  60.3891068  34.6497534  38.9707257  60.6491068  35.0197534
  40.5707257  60.0021068  35.4677534  40.5607257  61.6901068  34.0757534
  41.5897257  61.4921068  33.7767534  40.1107257  61.9731068  33.1237534
  40.4977257  62.8111068  35.0847534  40.6277257  63.7421068  34.5337534
  39.4757257  62.7341068  35.4567534  41.4117257  62.8031068  36.2237534
  42.3227257  62.3741068  36.1437534  41.0927257  63.2021068  37.4397534
  39.9577257  63.8291068  37.8427534  39.1027257  63.6841068  37.3247534
  39.8367257  63.9771068  38.8347534  41.9417257  63.0921068  38.4057534
  42.8227257  62.6321068  38.2247534  41.5967257  63.3761068  39.3117534
  41.1367257  58.9311068  32.9777534  42.1377257  58.6211068  33.6207534
  41.0027257  59.0751068  31.6387534  40.1027257  59.3791068  31.2867534
  42.2057257  59.0391068  30.7347534  42.8517257  58.1831068  30.9327534
  41.6367257  58.9631068  29.2797534  41.0927257  59.8731068  29.0247534
  42.5017257  58.8561068  28.6247534  40.8507257  57.6631068  28.9747534
  40.0327257  57.7231068  29.6927534  40.4387257  57.7351068  27.5717534
  40.0967257  58.7381068  27.3147534  39.7677257  56.9331068  27.2657534
  41.3127257  57.6661068  26.9237534  41.6387257  56.4151068  29.1627534
  42.4817257  56.3461068  28.4747534  41.9017257  56.3041068  30.2147534
  41.1297257  55.4931068  28.8807534  43.0257257  60.3371068  30.8797534
  42.5567257  61.4471068  30.9287534  44.3837257  60.2831068  30.9787534
  44.8047257  59.3631068  30.9237534  45.3287257  61.3831068  31.2027534
  44.7477257  62.2591068  31.4907534  46.1847257  61.0841068  32.4357534
  46.6917257  61.9991068  32.7387534  45.3717257  60.7411068  33.6687534
  44.7737257  61.6121068  33.9397534  44.7987257  59.8261068  33.5217534
  46.1507257  60.6131068  34.4197534  47.2787257  60.0271068  32.2447534
  46.8197257  59.0601068  32.0387534  47.9187257  59.9161068  33.1197534
  47.9197257  60.3841068  31.4377534  46.1767257  61.8111068  29.9397534
  46.7007257  60.9341068  29.3067534  46.3017257  63.1341068  29.7667534
  46.0557257  63.6571068  30.5997534  46.9957257  63.7991068  28.7157534
  46.4237257  63.5701068  27.8167534  46.9057257  65.3011068  28.9867534
  45.8667257  65.6271068  28.9327534  47.1897257  65.4501068  30.0287534
  47.7907257  66.1321068  28.1057534  48.8447257  66.6561068  28.4667534
  47.3837257  66.3331068  26.8977534  46.5837257  65.8691068  26.4847534
  47.9897257  66.9191068  26.3367534  48.4837257  63.3511068  28.7247534
  49.1987257  63.4421068  29.7457534  48.9507257  62.8181068  27.6397534
  48.4467257  63.0021068  26.7797534  50.1687257  62.0191068  27.5797534
  50.7937257  62.1111068  28.4677534  49.7447257  60.5511068  27.4917534
  49.0357257  60.3631068  26.6857534  50.8637257  59.5141068  27.2047534
  50.4467257  58.5071068  27.2457534  51.7487257  59.6791068  27.8187534
  51.1867257  59.6781068  26.1767534  49.1937257  60.1371068  28.7067534
  48.4637257  60.7531068  28.8077534  50.9547257  62.4261068  26.3767534
  50.3497257  62.5381068  25.3407534  52.2887257  62.6301068  26.4307534
  53.1047257  62.5191068  27.7037534  52.8667257  61.5251068  28.1017534
  52.7977257  63.2781068  28.4337534  54.5067257  62.5251068  27.1667534
  54.7867257  61.4841068  27.0057534  55.2527257  62.9391068  27.8457534
  54.4937257  63.2681068  25.8557534  55.3247257  62.9291068  25.2367534
  54.5717257  64.3301068  26.0877534  53.0747257  62.8951068  25.2907534
  52.7197257  63.7551068  24.7237534  53.3287257  61.6681068  24.4247534
  53.5267257  60.5691068  24.8857534  53.5357257  61.8291068  23.1287534
  53.3747257  62.7661068  22.7787534  53.7757257  60.7761068  22.1167534
  52.9257257  60.0941068  22.1117534  53.7477257  61.3851068  20.6567534
  54.7037257  61.7941068  20.3297534  53.4047257  60.6631068  19.9157534
  52.9887257  62.5831068  20.5377534  52.6697257  62.6211068  19.6337534
  55.0957257  59.9891068  22.2877534  55.2837257  58.9401068  21.7677534
  55.9967257  60.4371068  23.1657534  55.7257257  61.2741068  23.6677534
  57.2037257  59.7531068  23.5217534  57.0757257  58.6711068  23.4877534
  58.4307257  60.0581068  22.7157534  59.3287257  59.5771068  23.1027534
  58.2177257  59.4461068  21.3297534  57.4967257  60.0661068  20.7977534
  58.0577257  58.3681068  21.3067534  59.1167257  59.6401068  20.7447534
  58.7557257  61.4481068  22.5777534  59.5017257  61.4451068  21.9747534
  57.5207257  60.0251068  24.9617534  57.1897257  61.1221068  25.5017534
  58.1647257  59.0611068  25.5687534  58.3537257  58.1671068  25.1297534
  58.6077257  59.0991068  26.9547534  58.8437257  60.0921068  27.3377534
  57.7147257  58.3731068  27.9777534  58.0167257  58.6871068  28.9767534
  56.2917257  58.8991068  27.9997534  55.7667257  58.8391068  27.0457534
  55.6817257  58.2931068  28.6687534  56.3317257  59.8611068  28.5117534
  57.7437257  56.8631068  27.8977534  57.5247257  56.4581068  26.9097534
  57.0087257  56.4031068  28.5577534  58.6917257  56.4931068  28.2897534
  59.9887257  58.4961068  26.8617534  60.2927257  57.4991068  26.1967534
  60.9607257  58.9831068  27.6247534  60.8487257  59.8401068  28.1547534
  62.4047257  58.5561068  27.6507534  62.6237257  57.9541068  26.7697534
  63.4547257  59.6331068  27.6117534  63.2447257  60.1841068  28.5277534
  64.9037257  59.1211068  27.4817534  65.5677257  59.9861068  27.4877534
  65.0437257  58.4861068  26.6067534  65.2837257  58.4441068  28.2477534
  63.1797257  60.4671068  26.5117534  62.3837257  60.9781068  26.6777534
  62.5537257  57.6431068  28.9257534  62.5367257  58.1081068  30.0357534
  62.6667257  56.3601068  28.6687534  62.6917257  56.0391068  27.7077534
  63.0107257  55.4401068  29.6917534  62.5467257  55.7591068  30.6247534
  62.6157257  53.9691068  29.2817534  62.8747257  53.2241068  30.0337534
  61.0757257  53.8191068  29.1487534  60.7487257  54.5441068  28.4027534
  60.6867257  54.2811068  30.0557534  60.7837257  52.8141068  28.8417534
  63.2717257  53.5021068  27.8867534  62.4537257  53.4631068  27.1677534
  63.9487257  54.2701068  27.5147534  63.9767257  52.1011068  28.0147534
  64.6487257  52.1071068  28.8727534  64.6127257  51.9061068  27.1517534
  63.1317257  51.4171068  28.0997534  64.5947257  55.4771068  29.9037534
  65.3057257  56.0141068  29.0257534  65.0427257  55.1271068  31.1207534
  64.4057257  54.7261068  31.7987534  66.4057257  54.7811068  31.2827534
  66.7407257  54.2981068  30.3657534  67.4387257  55.9561068  31.4577534
  68.4417257  55.5341068  31.5147534  67.3577257  56.5261068  30.5317534
  67.3037257  56.9741068  32.5287534  67.9627257  56.7781068  33.7347534
  68.6687257  55.9931068  33.9627534  67.8567257  57.7831068  34.7207534
  68.3867257  57.7441068  35.6607534  66.9787257  58.7871068  34.5987534
  66.8277257  59.4551068  35.4337534  66.0767257  58.9181068  33.5527534
  65.4367257  59.7841068  33.4597534  66.3047257  57.9731068  32.4867534
  65.7187257  58.0941068  31.5877534  66.6497257  53.6951068  32.3567534
  65.8727257  53.5531068  33.2737534  67.8297257  53.0651068  32.3497534
  68.4387257  53.3101068  31.5777534  68.3427257  52.1751068  33.4347534
  68.0617257  52.6651068  34.3667534  67.6627257  50.8581068  33.3277534
  66.6677257  50.9991068  33.7507534  67.4657257  50.6811068  32.2697534
  68.2747257  49.5941068  34.0637534  69.3347257  49.4201068  33.8747534
  68.2847257  49.7821068  35.1377534  67.5797257  48.3431068  33.5757534
  66.3567257  48.1891068  33.8537534  68.1777257  47.4471068  32.9557534
  69.8547257  51.9951068  33.3937534  70.4837257  51.7711068  32.3617534
  70.4747257  52.1911068  34.5207534  69.9377257  52.6381068  35.2547534
  71.9547257  52.1151068  34.6577534  72.2337257  51.2001068  34.1357534
  72.6217257  53.3651068  34.0197534  73.7007257  53.2141068  34.0437534
  72.3607257  54.3011068  34.5137534  72.3617257  53.4391068  32.9647534
  72.4017257  51.8361068  36.1107534  71.8687257  52.3231068  37.1257534
  73.5637257  51.1371068  36.2237534  73.9897257  50.9721068  35.3197534
  74.1557257  50.6651068  37.4177534  73.4887257  51.0071068  38.2087534
  74.0957257  49.0931068  37.5377534  74.2937257  48.8321068  38.5777534
  72.7147257  48.4481068  37.2837534  72.4197257  48.4641068  36.2347534
  72.6547257  47.4701068  37.7627534  71.9757257  49.0861068  37.7677534
  74.9577257  48.4221068  36.4807534  76.0047257  48.5881068  36.7377534
  74.7477257  48.6231068  35.4297534  75.0177257  47.3411068  36.6077534
  75.5747257  51.1551068  37.6537534  76.1757257  51.6641068  36.7097534
  76.0697257  51.0531068  38.9367534  75.4417257  50.6031068  39.5927534
  77.2277257  51.8491068  39.4407534  77.9657257  52.0061068  38.6547534
  76.6947257  53.3021068  39.7477534  75.9157257  53.1141068  40.4857534
  77.5217257  53.8091068  40.2447534  76.1137257  54.1541068  38.6137534
  75.2287257  53.6861068  38.1837534  75.8487257  55.1331068  39.0147534
  77.2357257  54.4931068  37.5357534  77.9917257  55.0211068  38.1157534
  77.6947257  53.5551068  37.2207534  76.7177257  55.3521068  36.4497534
  76.7517257  56.3591068  36.3827534  76.3257257  55.0111068  35.2077534
  76.0887257  53.7631068  34.8017534  76.0317257  52.9431068  35.3887534
  75.8157257  53.6711068  33.8337534  76.1557257  55.9181068  34.2607534
  76.3697257  56.8741068  34.5037534  75.4667257  55.7951068  33.5327534
  77.9617257  51.2201068  40.5857534  77.2337257  50.9271068  41.5267534
  79.2867257  51.0871068  40.6587534  79.8027257  51.6961068  40.0357534
  79.9817257  50.6891068  41.8347534  79.7017257  49.6951068  42.1827534
  81.4407257  50.4551068  41.4687534  81.5367257  49.7291068  40.6607534
  81.9127257  51.3861068  41.1517534  82.1187257  49.9811068  42.6217534
  81.6067257  49.1741068  42.7097534  79.8407257  51.6911068  42.9437534
  79.9407257  52.9021068  42.8537534  79.6367257  51.1171068  44.1477534
  79.4097257  50.1341068  44.2377534  79.3417257  51.9701068  45.2927534
  78.7567257  52.8541068  45.0377534  78.5037257  51.1571068  46.2617534
  77.6477257  50.7061068  45.7587534  79.1337257  50.3221068  46.5667534
  78.0457257  51.8931068  47.4667534  78.4527257  51.6091068  48.7187534
  79.1127257  50.7801068  48.9267534  77.9377257  52.5461068  49.6097534
  78.1177257  52.4881068  50.6017534  77.2407257  53.5271068  48.9257534
  76.7237257  54.7491068  49.3657534  76.7217257  54.9561068  50.4257534
  76.1027257  55.6011068  48.4217534  75.5777257  56.4881068  48.7447534
  76.1447257  55.2371068  47.0967534  75.7487257  55.9171068  46.3577534
  76.8347257  54.1081068  46.6367534  76.8597257  53.8071068  45.5997534
  77.4357257  53.2391068  47.5497534  80.6317257  52.4081068  45.9857534
  80.6457257  53.2141068  46.8827534  81.7957257  51.8231068  45.5747534
  81.8197257  51.2101068  44.7687534  83.1767257  52.0891068  46.1247534
  83.2647257  52.1641068  47.2087534  84.0917257  50.9771068  45.5847534
  84.2127257  51.0371068  44.5027534  85.1217257  51.1631068  45.8907534
  83.5947257  49.6011068  46.0157534  83.2157257  49.6671068  47.0357534
  82.7357257  49.2541068  45.4417534  84.6587257  48.4561068  45.9857534
  85.9037257  48.6521068  45.8337534  84.2437257  47.3101068  46.1217534
  83.7777257  53.4341068  45.7107534  84.9957257  53.6261068  45.8317534
  82.9637257  54.3081068  45.1437534  81.9947257  54.0641068  44.9787534
  83.2387257  55.4851068  44.3027534  84.3107257  55.6651068  44.3757534
  82.8857257  55.1911068  42.8807534  83.3967257  54.3751068  42.3707534
  81.8327257  54.9361068  42.7607534  83.0477257  56.3481068  41.8997534
  83.6717257  57.3451068  42.1967534  82.6667257  56.2771068  40.6707534
  82.2607257  55.4151068  40.3287534  82.9047257  57.0801068  40.1007534
  82.5737257  56.7011068  44.9087534  81.4037257  56.6941068  45.0757534
  83.3647257  57.7091068  45.1547534  84.3427257  57.4601068  45.2417534
  82.8847257  58.9911068  45.7217534  82.3987257  58.7911068  46.6767534
  84.0757257  59.8911068  46.0097534  84.6527257  59.5021068  46.8497534
  84.7047257  60.0491068  45.1337534  83.6337257  61.3191068  46.4537534
  82.8047257  61.4271068  47.2747534  84.4257257  62.2861068  46.1487534
  85.1417257  62.1061068  45.4547534  84.2807257  63.2141068  46.5297534
  81.8127257  59.5981068  44.7977534  80.8127257  60.1131068  45.3207534
  81.9547257  59.4421068  43.4907534  82.6987257  58.9131068  43.0527534
  80.9077257  59.8841068  42.5467534  80.8047257  60.9671068  42.6247534
  81.2797257  59.5571068  41.1197534  81.0817257  58.5321068  40.8047534
  80.4697257  60.4471068  40.1687534  80.7447257  61.4911068  40.3147534
  79.4017257  60.3501068  40.3667534  80.7427257  60.2181068  39.1387534
  82.5987257  59.7751068  40.9527534  82.8007257  59.9711068  40.0347534
  79.5697257  59.2221068  42.8697534  78.5367257  59.8481068  42.8397534
  79.6037257  57.9651068  43.2897534  80.4347257  57.3991068  43.4147534
  78.3447257  57.3301068  43.5597534  77.6487257  57.5631068  42.7537534
  78.4697257  55.7911068  43.5427534  78.8007257  55.4471068  44.5227534
  77.1707257  55.0601068  43.2127534  76.8127257  55.3701068  42.2307534
  76.4397257  55.3801068  43.9557534  77.3737257  53.9911068  43.2817534
  79.4397257  55.4711068  42.6137534  79.5467257  54.5541068  42.8747534
  77.6717257  57.7631068  44.8167534  76.4327257  57.9341068  44.8737534
  78.4637257  58.0251068  45.8477534  79.4467257  57.8651068  45.6587534
  78.0257257  58.6861068  47.0777534  77.1607257  58.1181068  47.4207534
  79.0877257  58.6681068  48.1937534  79.9997257  59.1431068  47.8337534
  78.6427257  59.2511068  48.9997534  79.3427257  57.2181068  48.7247534
  78.6137257  57.1301068  49.5307534  79.1027257  56.5851068  47.8707534
  80.7897257  57.1171068  49.1607534  81.3507257  57.0731068  48.2277534
  81.1527257  58.0401068  49.6127534  81.0857257  55.8641068  50.0437534
  82.1187257  55.8541068  50.3927534  80.4567257  55.9691068  50.9267534
  80.7447257  54.5831068  49.3747534  81.1597257  54.5281068  48.4557534
  79.7597257  54.4001068  49.2497534  81.1357257  53.8171068  49.9047534
  77.4377257  60.1141068  46.8237534  76.3117257  60.3671068  47.2947534
  78.0827257  61.0001068  46.0637534  79.0097257  60.7551068  45.7397534
  77.5627257  62.2821068  45.5717534  77.1997257  62.8321068  46.4397534
  78.6767257  63.0431068  44.8457534  79.0907257  62.3951068  44.0727534
  78.1737257  63.9551068  44.5257534  79.7107257  63.4361068  45.9577534
  79.1577257  64.2261068  46.4657534  79.8517257  62.5601068  46.5907534
  81.0017257  64.0821068  45.3977534  80.7637257  65.1341068  45.2407534
  81.7287257  64.0661068  46.2097534  81.5497257  63.3211068  44.2197534
  81.4577257  62.2461068  44.3707534  81.0117257  63.5591068  43.3027534
  82.9947257  63.6801068  43.9427534  83.1697257  64.4041068  43.2597534
  83.5307257  62.8941068  43.6037534  83.5257257  64.0331068  44.7257534
  76.3217257  62.2191068  44.6867534  75.4137257  63.0181068  44.9157534
  76.2587257  61.2831068  43.7877534  77.0057257  60.6611068  43.5027534
  75.0137257  61.0791068  42.9677534  74.6537257  62.0261068  42.5657534
  75.2527257  59.9231068  41.9707534  75.8737257  60.2551068  41.1387534
  75.8947257  59.1981068  42.4727534  74.0397257  59.2701068  41.3837534
  72.9687257  59.8421068  40.7137534  73.0147257  60.9051068  40.5277534
  71.7217257  59.1991068  40.5197534  70.8387257  59.6631068  40.1047534
  71.5627257  57.8681068  40.9307534  70.6657257  57.2721068  40.8487534
  72.6057257  57.2731068  41.6527534  72.5637257  56.2721068  42.0557534
  73.7907257  58.0151068  41.9357534  74.4887257  57.5961068  42.6447534
  73.8307257  60.7501068  43.9167534  72.8227257  61.3231068  43.6947534
  74.0507257  59.9991068  44.9867534  74.9737257  59.5831068  45.0267534
  73.0287257  59.7911068  46.0487534  72.1217257  59.4491068  45.5507534
  73.2937257  58.5841068  46.9737534  74.3337257  58.6781068  47.2867534
  72.4187257  58.5991068  48.2817534  72.6657257  59.4271068  48.9457534
  72.5107257  57.7371068  48.9427534  71.3467257  58.6231068  48.0867534
  73.2357257  57.3231068  46.1397534  73.8047257  57.4161068  45.2147534
  73.5697257  56.4581068  46.7127534  71.9157257  56.7531068  45.7067534
  71.4627257  57.4371068  44.9887534  71.3567257  56.7051068  46.6407534
  72.0667257  55.7491068  45.3107534  72.7627257  61.1071068  46.8267534
  71.6547257  61.3951068  47.1017534  73.7697257  61.8631068  47.2897534
  74.7397257  61.6621068  47.0757534  73.5057257  63.0391068  48.1777534
  72.8397257  62.7861068  49.0037534  74.7557257  63.7291068  48.7677534
  75.4157257  63.9221068  47.9217534  74.4867257  64.7261068  49.1167534
  75.3847257  62.8011068  49.8217534  74.7457257  62.8661068  50.7027534
  75.4347257  61.7971068  49.3987534  76.7597257  63.2691068  50.1427534
  77.3417257  63.1741068  49.2267534  76.7337257  64.3321068  50.3827534
  77.3117257  62.4831068  51.2087534  76.6917257  62.4201068  52.0037534
  78.3157257  61.6901068  51.1307534  79.1697257  61.7661068  50.1517534
  79.1977257  62.6621068  49.6857534  80.1087257  61.4171068  50.2837534
  78.5637257  60.7511068  52.0157534  78.0067257  60.7351068  52.8577534
  79.5127257  60.4061068  52.0057534  72.7427257  64.0321068  47.3717534
  71.8417257  64.5681068  47.9477534  73.0607257  64.2141068  46.1417534
  73.8567257  63.6271068  45.9227534  72.4787257  65.0411068  45.1087534
  72.4287257  66.0921068  45.3937534  73.3047257  65.0281068  43.7847534
  74.3057257  65.4381068  43.9187534  73.4427257  63.9871068  43.4927534
  72.6357257  65.7581068  42.6707534  73.0037257  65.4061068  41.7067534
  71.5837257  65.5101068  42.5287534  72.7597257  67.2861068  42.7477534
  72.3467257  67.5581068  43.7187534  73.7777257  67.6041068  42.5207534
  71.8327257  67.8641068  41.7147534  71.3867257  67.2431068  41.0547534
  71.5157257  69.1341068  41.5557534  72.0127257  70.0841068  42.2857534
  72.8767257  69.7821068  42.7127534  71.7667257  71.0471068  42.1077534
  70.5757257  69.5331068  40.7347534  69.8777257  68.8731068  40.4227534
  70.2777257  70.4891068  40.8667534  71.0697257  64.5721068  44.9057534
  70.1587257  65.3711068  44.8087534  70.8197257  63.2731068  44.8537534
  71.5557257  62.5821068  44.7667534  69.4527257  62.7551068  44.8177534
  68.8797257  63.3921068  44.1437534  69.4787257  61.3101068  44.3657534
  69.7787257  61.3481068  43.3187534  70.3017257  60.7571068  44.8167534
  68.1567257  60.5771068  44.4437534  67.1427257  60.6951068  43.4297534
  67.2977257  61.4201068  42.6437534  66.0017257  59.8701068  43.4037534
  65.3257257  59.8711068  42.5617534  65.8727257  58.8871068  44.3917534
  65.0197257  57.8281068  44.1677534  65.0997257  57.0771068  44.7597534
  66.8737257  58.7421068  45.3857534  66.7727257  57.8761068  46.0237534
  67.9837257  59.5771068  45.4337534  68.7597257  59.4171068  46.1677534
  68.6057257  62.9761068  46.0657534  67.5997257  63.6751068  45.9047534
  69.0857257  62.6461068  47.2627534  70.0827257  62.4671068  47.2407534
  68.3757257  62.9511068  48.4937534  67.3997257  62.4691068  48.4607534
  69.1837257  62.3721068  49.6757534  70.2147257  62.6851068  49.5137534
  68.8497257  62.8951068  50.5717534  69.0837257  60.8391068  49.9737534
  68.0977257  60.5701068  49.5957534  69.7267257  60.3861068  49.2197534
  69.1477257  60.3531068  51.3457534  68.1787257  60.3181068  52.0517534
  70.3477257  60.0651068  51.8087534  70.4077257  60.0241068  52.8197534
  71.1377257  60.1691068  51.1847534  68.1447257  64.5331068  48.7657534
  67.2697257  64.8371068  49.5567534  68.9377257  65.3581068  48.1307534
  69.6707257  65.0301068  47.5147534  68.7147257  66.7941068  48.1887534
  68.2307257  67.0921068  49.1197534  70.1007257  67.5091068  48.0927534
  70.6347257  67.2071068  47.1927534  69.9827257  68.5881068  47.9937534
  70.9097257  67.1931068  49.2997534  70.2467257  67.5441068  50.0897534
  71.2207257  66.1551068  49.4227534  72.2007257  68.0381068  49.3127534
  72.7527257  67.9071068  48.3827534  71.8647257  69.0741068  49.2837534
  73.0027257  67.7101068  50.4957534  72.4607257  67.3501068  51.2687534
  74.2537257  67.5351068  50.6187534  75.0637257  67.7111068  49.5907534
  74.7287257  68.0891068  48.7157534  76.0367257  67.6391068  49.8497534
  74.7557257  67.1611068  51.7237534  74.1307257  66.9341068  52.4847534
  75.7107257  66.8381068  51.6697534  67.7597257  67.3421068  47.0897534
  67.3907257  68.5261068  47.0457534  67.2957257  66.5251068  46.1537534
  67.7297257  65.6181068  46.0327534  66.4567257  66.9491068  45.0617534
  66.0297257  67.9181068  45.3177534  67.3497257  67.1351068  43.8357534
  67.8397257  66.1691068  43.7107534  66.7437257  67.2771068  42.9407534
  68.4357257  68.2571068  43.9467534  69.0927257  68.1011068  44.8017534
  69.0737257  68.1271068  43.0727534  67.7927257  69.6861068  43.8877534
  67.0807257  69.7761068  44.7077534  68.6317257  70.3631068  44.0527534
  67.1037257  69.8351068  42.6237534  67.5157257  69.2981068  41.8747534
  65.9227257  70.3781068  42.3287534  65.1797257  71.0821068  43.1767534
  65.5937257  71.2621068  44.0797534  64.5377257  71.6971068  42.6977534
  65.3457257  70.2351068  41.1627534  65.8097257  69.5641068  40.5667534
  64.4207257  70.5471068  40.9057534  65.2437257  66.0671068  44.8077534
  64.4017257  66.4221068  43.9777534  65.1907257  64.9031068  45.4367534
  65.9807257  64.5101068  45.9337534  64.1697257  63.8751068  45.2537534
  64.3797257  63.4111068  44.2897534  64.2277257  62.8961068  46.4217534
  63.8907257  63.3381068  47.3597534  65.1937257  62.4081068  46.5577534
  63.5387257  62.1021068  46.1357534  62.7437257  64.4501068  45.0857534
  62.0337257  64.2211068  44.1447534  62.3247257  65.2641068  46.1097534
  62.9047257  65.5771068  46.8787534  60.9997257  65.9361068  46.0447534
  60.2697257  65.1541068  45.8367534  60.5757257  66.3701068  47.4587534
  60.4117257  65.3991068  47.9257534  61.3987257  66.9361068  47.8937534
  59.3987257  67.1501068  47.5207534  58.9467257  67.0431068  48.3617534
  60.9747257  67.0561068  45.0217534  60.1397257  67.0121068  44.1397534
  61.8087257  68.0251068  45.2147534  62.3167257  67.9221068  46.0847534
  61.8537257  69.2571068  44.3897534  60.8007257  69.5381068  44.3587534
  62.5087257  70.3971068  45.1807534  63.4067257  70.0801068  45.7117534
  62.7597257  71.1491068  44.4327534  61.4737257  70.8401068  46.2767534
  60.5087257  71.0411068  45.8107534  61.1897257  70.0781068  47.0027534
  61.8947257  72.0721068  47.1507534  62.6097257  71.7361068  47.9007534
  62.3087257  72.8831068  46.5517534  60.7457257  72.6591068  47.9797534
  61.0407257  73.6421068  48.3477534  59.9387257  72.9621068  47.3137534
  60.2587257  71.7081068  49.0177534  59.8397257  70.8481068  48.6937534
  59.5827257  72.0981068  49.6587534  61.0157257  71.5031068  49.6527534
  62.3087257  69.0901068  42.8857534  62.4147257  70.1181068  42.2417534
  62.4827257  67.9021068  42.3707534  62.5557257  67.1921068  43.0897534
  62.8077257  67.5801068  40.9967534  63.4037257  68.4071068  40.6097534
  63.6397257  66.3141068  40.8307534  64.4697257  66.3741068  41.5347534
  62.9647257  64.9021068  40.9737534  62.3607257  64.7121068  40.0857534
  62.2177257  64.8311068  41.7637534  63.6787257  64.1031068  41.1747534
  64.2957257  66.2591068  39.6227534  64.9267257  66.9831068  39.6047534
  61.5357257  67.4901068  40.1837534  60.4667257  67.2151068  40.6407534
  61.6787257  67.7561068  38.9267534  62.5817257  67.7621068  38.4677534
  60.6377257  67.8841068  37.9397534  60.2917257  68.9161068  37.8957534
  61.2647257  67.8411068  36.4897534  62.2447257  68.3181068  36.4877534
  61.3827257  66.8241068  36.1157534  60.4017257  68.4531068  35.4237534
  59.2027257  68.6291068  35.6297534  60.8947257  68.7251068  34.2817534
  59.4797257  66.8431068  38.0197534  59.6327257  65.6681068  38.0227534
  58.1977257  67.3251068  37.9467534  58.0337257  68.3251068  37.9667534
  56.9817257  66.4101068  37.7657534  57.0067257  65.6731068  38.5687534
  55.6677257  67.0591068  37.9847534  54.8637257  66.3241068  38.0277534
  55.7397257  67.6031068  38.9267534  55.1847257  68.0631068  36.8427534
  55.0707257  67.6121068  35.8567534  54.2337257  68.4241068  37.2337534
  56.1517257  69.1521068  36.6337534  56.6777257  69.5211068  37.5137534
  56.9427257  68.7521068  35.9987534  55.5167257  70.4521068  35.9917534
  54.8997257  70.2981068  35.1067534  54.8877257  70.9271068  36.7447534
  56.5837257  71.3981068  35.4497534  57.0857257  70.9811068  34.6787534
  57.2147257  71.5571068  36.2227534  56.1997257  72.2571068  35.0837534
  56.9747257  65.5581068  36.5347534  56.1057257  64.6571068  36.4667534
  57.9437257  65.8111068  35.6287534  58.4677257  66.6691068  35.7547534
  58.0737257  64.9251068  34.4097534  57.1407257  64.5371068  33.9997534
  58.7227257  65.7061068  33.2827534  59.5447257  66.3401068  33.6167534
  59.2277257  65.0271068  32.5947534  57.7297257  66.6191068  32.5077534
  58.1727257  67.4931068  31.7277534  56.5587257  66.7701068  32.9277534
  58.9017257  63.6191068  34.7167534  58.9087257  62.6971068  33.8487534
  59.6167257  63.5461068  35.8547534  59.6727257  64.2841068  36.5457534
  60.5957257  62.4881068  36.1007534  60.7197257  62.0341068  35.1177534
  61.9417257  63.2071068  36.4267534  62.3347257  63.7921068  35.5947534
  61.7947257  63.9211068  37.2367534  63.1547257  62.2551068  36.7797534
  62.9157257  61.5571068  37.5817534  63.5767257  61.3781068  35.5567534
  64.4747257  60.8071068  35.7947534  63.7217257  61.9751068  34.6567534
  62.7787257  60.6921068  35.2727534  64.2787257  63.1781068  37.2347534
  65.0617257  62.5051068  37.5837534  64.6207257  63.8211068  36.4227534
  64.0047257  63.8651068  38.0347534  60.1547257  61.3731068  37.1357534
  60.1887257  61.5351068  38.3377534  59.8427257  60.1641068  36.6117534
  59.8317257  60.0241068  35.6087534  59.5917257  58.9911068  37.5327534
  59.3807257  59.2701068  38.5647534  58.3797257  58.2031068  36.9977534
  58.5817257  57.9631068  35.9527534  58.1227257  56.7831068  37.4807534
  57.1787257  56.4721068  37.0337534  58.1507257  56.8011068  38.5697534
  58.8557257  56.1871068  36.9377534  57.2717257  59.0871068  37.0797534
  57.5147257  59.8521068  36.5527534  60.8277257  58.1121068  37.5737534
  61.3277257  57.7951068  36.5217534  61.3297257  57.9521068  38.8177534
  60.8217257  58.4951068  39.5057534  62.7357257  57.5641068  39.1067534
  63.0477257  56.8921068  38.3067534  63.6867257  58.8351068  39.1027534
  63.3467257  59.3911068  38.2287534  63.5457257  59.6301068  40.3757534
  63.9607257  59.0361068  41.1897534  62.4867257  59.8161068  40.5517534
  64.1407257  60.5171068  40.1567534  65.2117257  58.4521068  38.8957534
  65.5647257  57.9101068  39.7727534  65.3017257  57.8261068  38.0087534
  66.0647257  59.6741068  38.6667534  65.7607257  60.3251068  37.8467534
  67.0597257  59.3531068  38.3577534  66.1857257  60.2701068  39.5717534
  62.9617257  56.6761068  40.3687534  62.4067257  56.9981068  41.3507534
  63.7157257  55.5641068  40.2057534  63.9557257  55.3331068  39.2487534
  63.9587257  54.5171068  41.1877534  63.5197257  54.8041068  42.1437534
  63.3527257  53.1531068  40.7077534  63.4317257  53.0551068  39.6247534
  63.7817257  52.2681068  41.1777534  61.8197257  53.1761068  40.8247534
  61.0497257  53.9511068  39.8917534  61.5927257  54.4521068  39.1047534
  59.6547257  53.9521068  40.0327534  59.0177257  54.4841068  39.3427534
  59.0337257  53.1701068  40.9847534  57.9577257  53.1171068  41.0707534
  59.6847257  52.4461068  41.9307534  59.2077257  51.8871068  42.7217534
  61.1257257  52.4371068  41.8317534  61.6727257  51.7731068  42.4847534
  65.4677257  54.3831068  41.3317534  66.1277257  54.2351068  40.3277534
  65.9147257  54.4161068  42.6067534  65.2807257  54.4881068  43.3937534
  67.3297257  54.0801068  43.0207534  67.6537257  53.6831068  42.0587534
  68.0527257  55.3351068  43.4297534  67.7107257  55.6191068  44.4247534
  69.5577257  55.0281068  43.6277534  69.7897257  54.3711068  44.4657534
  70.0157257  54.6621068  42.7087534  70.1047257  55.9161068  43.9457534
  67.9367257  56.5511068  42.4987534  68.4567257  56.4341068  41.5487534
  68.3867257  57.3971068  43.0197534  66.8687257  56.7461068  42.4057534
  67.3327257  52.9771068  44.0347534  66.6257257  53.0521068  45.0397534
  68.0737257  51.9201068  43.7797534  68.7027257  51.9191068  42.9867534
  68.2047257  50.8441068  44.8347534  68.0847257  51.3111068  45.8117534
  67.4697257  50.0601068  44.6537534  69.6207257  50.3681068  44.9147534
  70.5397257  50.7591068  44.1947534  69.8187257  49.3661068  45.7967534
  68.9867257  49.1611068  46.3357534  71.1567257  48.8421068  46.0047534
  71.7727257  49.0781068  45.1377534  71.8237257  49.4131068  47.2777534
  71.2857257  48.9081068  48.0807534  72.8147257  48.9941068  47.4487534
  71.7967257  50.8811068  47.3787534  70.6277257  51.5191068  47.8067534
  69.7157257  51.0341068  48.1237534  70.5667257  52.9071068  47.9437534
  69.6557257  53.3761068  48.2847534  71.7127257  53.7171068  47.6217534
  71.6647257  54.7921068  47.7117534  72.8857257  53.0841068  47.2247534
  73.7397257  53.7231068  47.0597534  72.9707257  51.6331068  47.0867534
  73.9317257  51.1621068  46.9377534  71.2297257  47.3091068  46.0967534
  70.3047257  46.6171068  46.4817534  72.3847257  46.6951068  45.6817534
  73.1197257  47.2891068  45.3167534  72.5637257  45.2131068  45.6337534
  71.9997257  44.8341068  46.4847534  72.0977257  44.7131068  44.2997534
  71.2327257  45.3211068  44.0357534  72.8077257  44.9131068  43.4967534
  71.4837257  43.2631068  44.3067534  72.3127257  42.5681068  44.1737534
  70.9877257  43.1291068  45.2677534  70.4327257  43.1671068  43.2027534
  69.5907257  43.8161068  43.4467534  70.8147257  43.3711068  42.2027534
  69.9457257  41.7711068  43.0597534  70.4487257  41.0641068  43.5767534
  69.0927257  41.3201068  42.2127534  68.6137257  41.9861068  41.2237534
  68.6977257  42.9881068  41.1367534  67.9517257  41.6051068  40.5627534
  68.8507257  40.0711068  42.2697534  69.4117257  39.6261068  42.9817534
  68.0887257  39.7081068  41.7137534  74.0567257  44.8701068  45.7817534
  74.8867257  45.7161068  45.4997534  74.4387257  43.6601068  46.0827534
  73.6727257  43.0991068  46.4367534  75.8777257  43.1981068  46.1277534
  76.5467257  44.0571068  46.0817534  76.2127257  42.5751068  47.4177534
  77.2287257  42.1841068  47.4727534  76.0677257  43.3631068  48.7077534
  76.0037257  42.7111068  49.5787534  75.1727257  43.9721068  48.5807534
  76.9747257  43.9581068  48.8177534  75.4037257  41.4551068  47.4797534
  75.5977257  41.0051068  48.3047534  76.3667257  42.3281068  44.9367534
  75.5397257  41.6911068  44.2527534  77.6617257  42.3711068  44.6157534
  78.2907257  42.9771068  45.1287534  78.3867257  41.7041068  43.5317534
  77.9227257  40.7331068  43.3557534  78.2047257  42.6521068  42.2637534
  77.1497257  42.8761068  42.1057534  78.9257257  43.9741068  42.2997534
  79.9497257  43.8301068  42.6457534  78.4407257  44.6261068  43.0277534
  78.8357257  44.3721068  41.2887534  78.5197257  41.8801068  41.1047534
  78.0377257  42.3381068  40.4117534  79.7727257  41.4021068  43.8707534
  80.2627257  41.6671068  44.9637534  80.5537257  40.8081068  42.9487534
  80.2247257  40.8941068  41.9947534  81.9617257  40.4611068  43.2027534
  82.0027257  39.9901068  44.1847534  82.4487257  39.3541068  42.2057534
  81.8727257  38.4301068  42.2697534  82.4517257  39.8611068  41.2417534
  83.8887257  39.2131068  42.3557534  84.1837257  38.9271068  43.2227534
  82.7747257  41.8101068  43.2107534  82.4667257  42.7201068  42.4547534
  83.8887257  41.8281068  43.9367534  84.0827257  40.8971068  44.2847534
  84.8407257  42.9281068  44.1287534  84.3307257  43.8831068  44.0007534
  85.4257257  42.8471068  45.5767534  86.2007257  43.5621068  45.8517534
  84.6487257  42.9871068  46.3277534  86.1097257  41.6621068  45.9467534
  85.5347257  40.8971068  45.8747534  85.9767257  42.7361068  43.1737534
  86.1347257  41.7321068  42.5357534  86.7307257  43.8071068  42.8897534
  86.4717257  44.6801068  43.3337534  87.7817257  43.9271068  41.8497534
  88.0167257  42.9541068  41.4177534  87.2617257  44.7511068  40.7067534
  88.0777257  44.7881068  39.9857534  86.0927257  44.2511068  39.8687534
  85.8697257  44.9431068  39.0557534  85.2007257  44.4441068  40.4647534
  86.2137257  43.2331068  39.4987534  86.9227257  46.0691068  41.1597534
  87.7637257  46.4301068  41.4497534  89.0857257  44.4651068  42.4827534
  89.7047257  45.3691068  42.0027534  89.5177257  43.9381068  43.5997534
  89.1457257  43.0351068  43.8667534  90.7387257  44.2711068  44.3047534
  90.9227257  45.3431068  44.3887534  90.9387257  43.7181068  45.6817534
  90.5227257  42.7131068  45.6017534  91.9947257  43.8051068  45.9387534
  90.0597257  44.4641068  46.6497534  89.4487257  45.5001068  46.3647534
  89.7777257  43.8361068  47.7267534  91.9037257  43.7661068  43.3917534
  91.9307257  42.6861068  42.7747534  92.9767257  44.5661068  43.3327534
  92.9137257  45.4211068  43.8717534  94.3707257  44.2541068  42.8877534
  94.2177257  43.8921068  41.8707534  95.2767257  45.4961068  42.9447534
  96.2277257  45.2471068  42.4737534  94.8477257  46.2911068  42.3367534
  95.6587257  45.9931068  44.4017534  95.9267257  45.1401068  45.0247534
  96.5407257  46.6341068  44.3977534  94.4677257  46.7151068  45.1177534
  93.3947257  47.1001068  44.4887534  94.7947257  47.0981068  46.2597534
  94.9587257  43.0201068  43.5477534  95.8967257  42.4501068  43.0057534
  94.4717257  42.6381068  44.7097534  93.5567257  43.0231068  44.9117534
  94.9827257  41.5761068  45.5557534  96.0137257  41.4851068  45.2167534
  94.7737257  42.0041068  47.0487534  94.7577257  43.0921068  47.1077534
  93.7997257  41.6691068  47.4057534  95.9507257  41.4031068  47.8877534
  95.4777257  41.3851068  48.8687534  96.1067257  40.3571068  47.6227534
  97.2737257  42.1161068  47.8317534  97.9127257  42.1601068  46.7727534
  97.7037257  42.5111068  48.9367534  94.3357257  40.2531068  45.2577534
  94.7257257  39.2271068  45.8227534  93.2147257  40.1951068  44.5007534
  92.9307257  41.0911068  44.1237534  92.5417257  38.9851068  44.0377534
  91.8577257  39.3611068  43.2777534  93.2517257  38.3171068  43.5517534
  91.6017257  38.3001068  44.9307534  90.8467257  37.5281068  44.3767534
  91.7647257  38.6151068  46.2467534  92.6637257  39.0151068  46.4877534
  90.9117257  38.0141068  47.2437534  90.9427257  36.9601068  46.9687534
  91.5757257  38.1211068  48.6077534  91.7147257  39.1961068  48.7287534
  90.9067257  37.5911068  49.2857534  92.9027257  37.3591068  48.6137534
  93.9467257  37.9641068  48.8337534  92.9837257  36.1541068  48.0927534
  92.1157257  35.6641068  47.9097534  93.8717257  35.6681068  48.1307534
  89.4627257  38.5121068  47.1847534  89.2497257  39.6771068  47.0427534
  88.4107257  37.6601068  47.3447534  88.6867257  36.7221068  47.6087534
  87.0217257  38.0751068  47.4567534  86.7957257  38.9221068  46.8077534
  86.0897257  37.0081068  46.8307534  86.5017257  36.6751068  45.8777534
  86.1677257  36.1681068  47.5207534  84.6767257  37.3981068  46.4877534
  84.2327257  36.5701068  45.9357534  84.1527257  37.5301068  47.4337534
  84.6997257  38.6381068  45.6017534  85.0897257  38.5841068  44.4297534
  84.3667257  39.7271068  46.1317534  86.6257257  38.5101068  48.8447534
  87.0147257  37.9641068  49.8827534  85.8167257  39.5621068  48.8017534
  85.6027257  39.8621068  47.8577534  85.2337257  40.2581068  50.0097534
  85.1997257  39.5301068  50.8197534  86.2677257  41.3261068  50.4427534
  85.8597257  41.6321068  51.4057534  87.2427257  40.9841068  50.7897534
  86.3037257  42.5031068  49.4687534  86.9317257  42.1581068  48.6477534
  85.3407257  42.8191068  49.0677534  86.9857257  43.7651068  49.9717534
  86.4387257  44.3441068  50.7157534  87.8707257  43.4291068  50.5107534
  87.3827257  44.5801068  48.8107534  88.2267257  44.2761068  48.3457534
  86.5867257  45.3381068  48.1197534  85.4577257  45.7851068  48.5567534
  85.2247257  45.5281068  49.5047534  84.8877257  46.2511068  47.8647534
  86.9617257  45.8541068  46.9547534  87.8687257  45.5601068  46.6207534
  86.3267257  46.5541068  46.5977534  83.8457257  40.8701068  49.9017534
  83.3817257  41.3491068  50.9357534  83.3097257  40.9461068  48.6727534
  83.6407257  40.1851068  48.0927534  81.9247257  41.4621068  48.3897534
  81.7437257  41.2421068  47.3377534  80.8247257  40.6551068  49.1627534
  80.9347257  40.6531068  50.2467534  79.3367257  41.2101068  48.9437534
  78.7227257  40.7401068  49.7127534  78.9837257  40.9551068  47.9447534
  79.2977257  42.2951068  49.0377534  80.9287257  39.1661068  48.8497534
  81.8537257  38.7571068  49.2557534  80.1617257  38.6751068  49.4467534
  80.8667257  38.5441068  47.3957534  79.9387257  38.7011068  46.8467534
  81.1157257  37.4831068  47.3927534  81.6277257  39.0201068  46.7777534
  81.8297257  42.9801068  48.4777534  82.3617257  43.6891068  49.3387534
  81.1127257  43.5241068  47.4787534  80.6277257  42.8891068  46.8557534
  81.0857257  44.9091068  47.0597534  81.3807257  45.6991068  47.7497534
  82.0417257  44.9661068  45.8297534  83.0397257  44.6151068  46.0957534
  81.6087257  44.1981068  45.1887534  82.0077257  46.3091068  45.2857534
  82.8047257  46.6751068  45.6777534  79.6747257  45.2941068  46.5907534
  79.0007257  44.4881068  46.0027534  79.2427257  46.4941068  46.9837534
  79.9157257  47.0651068  47.4797534  77.8357257  46.9071068  46.7027534
  77.1197257  46.0861068  46.6847534  77.3977257  48.0201068  47.7467534
  78.1857257  48.7681068  47.6547534  76.0127257  48.6451068  47.4257534
  76.0097257  49.1251068  46.4467534  75.7097257  49.3801068  48.1717534
  75.2157257  47.9021068  47.4467534  77.3307257  47.5201068  49.2247534
  76.3507257  47.1231068  49.4867534  77.9407257  46.6191068  49.2997534
  77.8067257  48.5431068  50.3487534  77.3187257  49.5161068  50.2937534
  78.8767257  48.7521068  50.3107534  77.4757257  48.1551068  51.3117534
  77.7947257  47.5431068  45.2717534  78.6217257  48.3001068  44.7557534
  76.7537257  47.3151068  44.5377534  76.0187257  46.7471068  44.9407534
  76.3617257  48.0451068  43.3597534  77.0817257  48.8261068  43.1157534
  76.0847257  47.0981068  42.2367534  76.7427257  46.2331068  42.3047534
  75.0777257  46.7451068  42.4627534  76.2117257  47.6461068  40.7667534
  75.9317257  48.6991068  40.7727534  77.6917257  47.7151068  40.3907534
  78.0387257  46.6921068  40.2437534  78.3407257  48.2991068  41.0427534
  77.7887257  48.1641068  39.4027534  75.4237257  46.7321068  39.8317534
  74.3347257  46.7381068  39.8837534  75.7807257  46.7431068  38.8017534
  75.5957257  45.6911068  40.1037534  75.1907257  48.9671068  43.7247534
  74.2917257  48.6631068  44.5317534  75.1147257  50.1231068  43.1057534
  75.9487257  50.3081068  42.5607534  73.9087257  50.9961068  43.0437534
  73.1627257  50.8321068  43.8217534  74.2537257  52.5041068  43.3567534
  74.9107257  52.8561068  42.5617534  72.9647257  53.3011068  43.3447534
  72.5247257  53.3531068  42.3487534  73.1027257  54.3191068  43.7077534
  72.2647257  52.8361068  44.0397534  74.9497257  52.6541068  44.5857534
  74.3317257  52.4951068  45.3027534  73.2137257  50.8771068  41.6997534
  73.8867257  50.8831068  40.7197534  71.8707257  50.8731068  41.7107534
  71.4217257  50.9881068  42.6107534  71.1377257  50.5751068  40.5667534
  71.7987257  50.5271068  39.7007534  70.4497257  49.1551068  40.7347534
  69.9797257  49.2201068  41.7157534  69.2967257  48.9691068  39.6977534
  69.6837257  48.9821068  38.6787534  68.5217257  49.7301068  39.7887534
  68.8807257  47.9961068  39.9587534  71.5237257  48.0721068  40.6047534
  71.4567257  47.4981068  39.6797534  72.5057257  48.5251068  40.4707534
  71.6227257  47.1591068  41.8427534  70.6487257  46.6731068  41.9087534
  71.8107257  47.7421068  42.7447534  72.3117257  46.3211068  41.7417534
  70.1407257  51.7001068  40.2327534  69.4187257  52.0291068  41.1577534
  69.9737257  52.1311068  39.0067534  70.4627257  51.6951068  38.2337534
  69.0447257  53.2301068  38.6217534  68.5077257  53.5241068  39.5237534
  69.6877257  54.5231068  38.0957534  70.0167257  54.3951068  37.0647534
  68.7317257  55.7441068  37.8007534  67.8247257  55.3841068  37.3167534
  68.3917257  56.2081068  38.7267534  69.2597257  56.5331068  37.2657534
  70.6767257  55.0441068  39.1577534  71.2327257  55.9541068  38.9327534
  71.3957257  54.2691068  39.4227534  70.2067257  55.3521068  40.0927534
  68.0097257  52.7011068  37.6007534  68.4227257  52.0571068  36.6947534
  66.7067257  53.0541068  37.6737534  66.3137257  53.4071068  38.5377534
  65.7417257  52.7991068  36.5437534  66.2707257  52.9981068  35.6117534
  65.2457257  51.3641068  36.6087534  64.5917257  51.1691068  35.7587534
  66.0757257  50.6571068  36.6047534  64.5677257  51.0671068  37.7607534
  65.1497257  50.9681068  38.5177534  64.6927257  53.9001068  36.4887534
  64.3097257  54.3841068  37.5357534  64.1887257  54.2921068  35.3117534
  64.6387257  53.9411068  34.4747534  63.3317257  55.5721068  35.1597534
  62.6727257  55.5041068  36.0247534  64.2307257  56.8161068  35.2807534
  63.6697257  57.7511068  35.2587534  65.0537257  56.7641068  34.5687534
  64.6447257  56.8021068  36.2887534  62.4157257  55.5101068  33.9297534
  62.7457257  54.8541068  32.9977534  61.4807257  56.4221068  33.9197534
  61.4627257  57.1641068  34.6087534  60.7487257  56.9031068  32.7477534
  61.3817257  56.6761068  31.8897534  59.3557257  56.2851068  32.8357534
  58.7957257  56.6001068  33.7157534  58.5497257  56.5871068  31.5577534
  57.6557257  55.9741068  31.4507534  59.1707257  56.5081068  30.6657534
  58.2577257  57.6371068  31.5767534  59.3517257  54.8811068  32.7017534
  59.5987257  54.4331068  33.5147534  60.5267257  58.4751068  32.9317534
  60.1087257  58.8631068  33.9627534  60.8907257  59.2501068  31.9487534
  61.2807257  58.8021068  31.1287534  60.6567257  60.7391068  31.9607534
  60.2217257  60.9811068  32.9297534  62.0027257  61.4861068  31.7047534
  62.6947257  61.2511068  32.5137534  62.3877257  60.9831068  30.8177534
  62.0417257  62.9081068  31.3997534  61.8747257  63.8801068  32.3457534
  61.6527257  63.4721068  33.3197534  62.0317257  65.2311068  32.0987534
  61.7387257  65.9471068  32.8517534  62.2977257  65.6491068  30.7687534
  62.4637257  66.6981068  30.5757534  62.3817257  64.6941068  29.7317534
  62.5737257  65.0231068  28.7207534  62.3117257  63.3281068  30.0687534
  62.5227257  62.5531068  29.3467534  59.5987257  61.1141068  30.8737534
  59.5897257  60.6411068  29.7367534  58.7497257  62.0481068  31.1897534
  58.8537257  62.4851068  32.0977534  57.7597257  62.4461068  30.2527534
  57.4767257  61.6291068  29.5887534  56.4497257  62.8691068  30.8887534
  56.5747257  63.6921068  31.5927534  55.7647257  63.0811068  30.0677534
  55.8317257  61.8261068  31.7737534  56.1697257  61.5901068  33.0737534
  57.0147257  61.9061068  33.5277534  55.3607257  60.6481068  33.5937534
  55.3247257  60.2621068  34.6017534  54.5677257  60.2141068  32.6517534
  54.8607257  60.9491068  31.4887534  54.4077257  60.8231068  30.5167534
  58.2287257  63.5901068  29.3087534  57.7617257  64.6871068  29.2817534
  59.0917257  63.1841068  28.3987534  59.4657257  62.2581068  28.5717534
  59.6067257  63.9861068  27.3107534  58.7557257  64.2751068  26.6947534
  60.0107257  64.9111068  27.7227534  60.6967257  63.2101068  26.5027534
  61.1027257  62.1811068  26.9867534  61.1477257  63.8801068  25.4007534
  60.7067257  64.7871068  25.3057534  62.1507257  63.3931068  24.4397534
  61.8397257  62.4201068  24.0597534  62.2137257  64.1991068  23.1507534
  62.2567257  65.2581068  23.4067534  63.0557257  63.8991068  22.5277534
  61.0177257  64.1421068  22.3907534  61.0217257  63.2831068  21.9617534
  63.5877257  63.2951068  25.0887534  63.9547257  63.8931068  26.0737534
  64.4807257  62.4561068  24.5317534  64.2617257  62.1281068  23.5987534
  65.7297257  62.0241068  25.1427534  65.5157257  61.6921068  26.1587534
  66.1987257  60.8611068  24.2397534  65.6177257  59.9461068  24.3537534
  66.2117257  61.2691068  23.2287534  67.5927257  60.3201068  24.5447534
  68.3937257  61.0581068  24.4977534  67.4957257  59.9231068  25.5557534
  67.8927257  59.1961068  23.5197534  67.4067257  58.3071068  23.9217534
  67.5727257  59.5541068  22.5417534  69.3607257  58.9261068  23.4707534
  69.9267257  59.6011068  22.8297534  69.7417257  59.1481068  24.4677534
  69.4797257  57.4531068  23.0897534  69.2177257  57.3451068  22.1207534
  69.0147257  56.7591068  23.6587534  70.4477257  57.1721068  23.0417534
  66.7447257  63.1711068  25.3297534  67.3117257  63.3491068  26.3747534
  66.6177257  64.1871068  24.3807534  65.9617257  64.0601068  23.6187534
  67.3577257  65.4281068  24.5537534  68.4007257  65.1651068  24.7337534
  67.2717257  66.0771068  23.1607534  68.0617257  66.8281068  23.1727534
  67.5987257  65.3361068  22.4317534  65.9357257  66.6621068  22.8067534
  64.9187257  65.9891068  23.0047534  65.8447257  67.8641068  22.3787534
  66.9057257  66.3091068  25.6757534  67.7307257  66.8241068  26.4517534
  65.5957257  66.2081068  25.9667534  65.0017257  65.8961068  25.2077534
  64.9847257  66.9291068  27.0777534  65.4067257  67.9331068  27.0287534
  63.4627257  67.1551068  26.8857534  62.9777257  66.1811068  26.9507534
  63.1677257  67.7251068  27.7667534  62.9497257  67.9671068  25.7057534
  63.1827257  67.4161068  24.7947534  61.8967257  68.2491068  25.7307534
  63.5867257  69.3601068  25.6577534  62.8107257  70.0651068  25.3587534
  63.8337257  69.7121068  26.6587534  64.6517257  69.4281068  24.6457534
  64.6187257  68.7441068  23.9037534  65.7027257  70.2691068  24.5667534
  66.0517257  71.2061068  25.5007534  65.5777257  71.2351068  26.3927534
  66.8597257  71.8001068  25.3807534  66.5037257  70.1611068  23.5427534
  66.5087257  69.3871068  22.8937534  67.2127257  70.8661068  23.4017534
  65.3217257  66.2401068  28.3517534  65.3977257  66.8961068  29.3847534
  65.5657257  64.8731068  28.3017534  65.3557257  64.3451068  27.4637534
  66.1007257  64.2081068  29.5077534  65.6137257  64.5791068  30.4087534
  65.9677257  62.7181068  29.3257534  64.8837257  62.6071068  29.3517534
  66.3987257  62.4651068  28.3577534  66.5607257  61.9601068  30.4927534
  67.6447257  62.0801068  30.4987534  65.8697257  62.3141068  31.7907534
  64.8117257  62.1041068  31.6327534  66.1897257  63.2831068  32.1767534
  66.2157257  61.6481068  32.5807534  66.4807257  60.4691068  30.0567534
  66.8697257  59.8111068  30.8337534  65.4627257  60.2021068  29.7727534
  67.1457257  60.3281068  29.2057534  67.5717257  64.5661068  29.7417534
  68.1007257  64.7541068  30.8137534  68.3457257  64.4631068  28.6287534
  67.8527257  64.2121068  27.7797534  69.7567257  64.5141068  28.6577534
  70.0387257  63.9091068  29.5197534  70.3857257  64.0831068  27.3277534
  69.9297257  64.6841068  26.5407534  71.4037257  64.4571068  27.4397534
  70.3047257  62.5331068  27.0887534  69.3317257  62.1251068  27.3607534
  70.5597257  62.2281068  25.6137534  71.6257257  62.4261068  25.4947534
  70.1057257  62.8881068  24.8747534  70.4477257  61.1571068  25.4477534
  71.4767257  61.7241068  27.7507534  72.4617257  62.1281068  27.5147534
  71.3707257  61.5021068  28.8127534  71.4457257  60.6881068  27.4127534
  70.1227257  65.9781068  29.1127534  71.0377257  66.0921068  29.9137534
  69.4217257  66.9911068  28.7467534  68.7007257  66.7871068  28.0647534
  69.6167257  68.4121068  29.1427534  70.6887257  68.5261068  29.3007534
  69.0947257  69.3731068  28.0897534  68.0697257  69.1341068  27.8047534
  69.0297257  70.3671068  28.5327534  69.9037257  69.4181068  26.7897534
  69.6307257  68.5561068  26.1807534  69.5257257  70.2761068  26.2347534
  71.3977257  69.4861068  26.8497534  72.1087257  69.9281068  27.7557534
  71.9817257  68.9871068  25.7307534  72.9517257  69.2761068  25.6797534
  71.4327257  68.6501068  24.9497534  69.0317257  68.7301068  30.5517534
  69.5987257  69.6451068  31.2027534  68.0547257  67.9241068  31.0487534
  67.7337257  67.1771068  30.4447534  67.7777257  67.8761068  32.4667534
  67.5087257  68.8641068  32.8397534  66.4037257  67.0341068  32.7077534
  65.5997257  67.6631068  32.3257534  66.4427257  66.0061068  32.3467534
  66.0627257  66.8991068  34.1897534  66.8957257  66.4411068  34.7217534
  65.9867257  68.2361068  34.9067534  65.2417257  68.9611068  34.5787534
  66.9867257  68.6701068  34.8927534  65.6567257  68.0401068  35.9267534
  64.7937257  66.1751068  34.3537534  64.6587257  65.4101068  33.5897534
  64.5557257  65.7351068  35.3217534  63.9727257  66.8501068  34.1147534
  68.9847257  67.3481068  33.3627534  69.3957257  68.1091068  34.2327534
  69.4157257  66.0631068  33.1657534  68.9637257  65.5561068  32.4137534
  70.4607257  65.3451068  33.9687534  70.1637257  65.5571068  34.9957534
  70.4967257  63.8991068  33.4887534  70.6337257  63.9781068  32.4097534
  71.5097257  62.8991068  34.1207534  71.7147257  62.1091068  33.3967534
  72.4297257  63.4501068  34.3177534  71.1067257  62.4301068  35.0177534
  69.1717257  63.2681068  33.8107534  68.8827257  63.5811068  34.8147534
  69.2047257  62.2001068  33.5957534  68.3667257  63.5771068  33.1437534
  71.8307257  66.1361068  33.8667534  72.6317257  66.0811068  34.8297534
  72.0487257  66.9621068  32.8467534  71.3917257  67.0901068  32.0857534
  73.2617257  67.8401068  32.7927534  74.1237257  67.2191068  33.0397534
  73.4167257  68.4151068  31.4227534  72.4597257  68.7981068  31.0687534
  74.0767257  69.2801068  31.4747534  73.9427257  67.4491068  30.3727534
  73.4417257  66.4881068  30.4837534  73.7497257  67.8141068  29.3637534
  75.4467257  67.2581068  30.3687534  76.2197257  68.1041068  30.7637534
  75.9427257  66.1131068  30.0627534  76.9507257  66.0711068  30.1497534
  75.3527257  65.3401068  29.7797534  73.2767257  68.9391068  33.8937534
  74.3417257  69.3431068  34.2847534  72.0937257  69.4201068  34.3377534
  71.2387257  69.0801068  33.9137534  71.9477257  70.2621068  35.4977534
  72.9197257  70.7231068  35.6697534  71.0627257  71.4451068  35.2407534
  71.0307257  72.1411068  36.0787534  71.3397257  71.9601068  34.3207534
  69.6067257  71.2271068  35.0277534  69.4007257  70.6441068  34.1297534
  69.1807257  70.6791068  35.8677534  68.7947257  72.4481068  34.8467534
  69.0097257  73.1381068  35.6627534  69.0147257  72.9721068  33.9167534
  67.3027257  72.1601068  34.9177534  67.0977257  71.2841068  34.3017534
  66.9757257  71.7881068  35.8887534  66.5097257  73.2811068  34.4067534
  66.7007257  73.4541068  33.4297534  66.6427257  74.0341068  35.0657534
  65.5397257  73.0091068  34.3307534  71.5337257  69.5311068  36.7537534
  72.0517257  69.8341068  37.8057534  70.6987257  68.5091068  36.7477534
  70.2367257  68.3161068  35.8667534  70.0357257  67.8251068  37.8607534
  69.9457257  68.6601068  38.5547534  68.5877257  67.5421068  37.3457534
  68.1477257  68.4851068  37.0197534  68.7177257  66.7941068  36.5637534
  67.7717257  66.9441068  38.5307534  66.8887257  66.5291068  38.0447534
  68.3197257  66.1961068  39.1037534  67.3277257  68.0011068  39.4337534
  66.1307257  68.3881068  39.5227534  68.1627257  68.4691068  40.2477534
  70.7527257  66.5391068  38.4407534  70.7917257  66.4271068  39.6477534
  71.4907257  65.6781068  37.5857534  71.6167257  66.0061068  36.6357534
  72.2897257  64.6241068  38.1657534  72.5127257  64.9591068  39.1787534
  71.5467257  63.3521068  38.3187534  71.4247257  62.9091068  37.3297534
  72.2037257  62.5361068  38.6167534  70.1857257  63.2441068  38.9927534
  70.0827257  63.4881068  40.3577534  70.9667257  63.5191068  40.9777534
  68.8657257  63.3891068  41.0197534  68.8047257  63.6771068  42.0587534
  67.6987257  63.0811068  40.2997534  66.6847257  63.0801068  40.6707534
  67.7457257  62.9221068  38.9007534  66.8797257  62.7711068  38.2737534
  69.0267257  63.0241068  38.3037534  69.1277257  62.8121068  37.2487534
  73.7327257  64.3711068  37.4177534  74.0567257  63.3041068  37.0067534
  74.5957257  65.3781068  37.1647534  74.4617257  66.6871068  37.6807534
  74.2007257  66.6741068  38.7467534  73.7207257  67.3041068  37.1577534
  75.8177257  67.3551068  37.4167534  76.5287257  67.1901068  38.2257534
  75.6747257  68.4341068  37.4777534  76.3017257  66.6811068  36.1287534
  77.3617257  66.7671068  35.8897534  75.6657257  67.0331068  35.3167534
  75.8047257  65.2721068  36.3487534  75.5337257  64.9341068  35.3487534
  76.8617257  64.3001068  36.8577534  77.7277257  63.8991068  36.1137534
  76.8227257  63.8701068  38.1257534  76.1167257  64.3721068  38.6507534
  77.5257257  62.8001068  38.7577534  78.5857257  62.8581068  38.5097534
  77.3477257  62.9301068  40.3137534  76.2797257  62.9001068  40.5267534
  77.8347257  62.0731068  40.7787534  78.0577257  64.2231068  40.7897534
  79.0547257  64.6141068  40.1117534  77.5967257  64.8831068  41.6987534
  77.1017257  61.3621068  38.2537534  77.8027257  60.3751068  38.2297534
  75.8767257  61.1271068  37.6467534  75.1597257  61.8401068  37.5717534
  75.4157257  59.8911068  37.0957534  75.7157257  59.2231068  37.9027534
  73.9237257  59.9001068  37.0197534  73.5827257  60.0241068  38.0477534
  73.6117257  60.7481068  36.4107534  73.3917257  58.6421068  36.4077534
  73.6637257  58.5271068  35.3587534  73.8657257  57.4661068  37.2617534
  74.9517257  57.3841068  37.2987534  73.5057257  56.5471068  36.7987534
  73.3657257  57.5881068  38.2227534  71.8967257  58.7771068  36.2697534
  71.7017257  59.6891068  35.7057534  71.6007257  57.8991068  35.6957534
  71.3747257  59.0531068  37.1867534  76.1247257  59.5771068  35.7507534
  76.3927257  58.3771068  35.4637534  76.4547257  60.5981068  34.9777534
  76.2157257  61.4841068  35.4077534  77.1077257  60.5801068  33.6477534
  77.3977257  61.6011068  33.4007534  78.1027257  60.1361068  33.6677534
  76.2537257  59.8281068  32.6647534  76.6587257  58.7591068  32.1767534
  75.0247257  60.2231068  32.4377534  74.7577257  61.1491068  32.7507534
  74.0857257  59.3931068  31.6707534  74.2347257  58.3591068  31.9807534
  72.6277257  59.7031068  32.2357534  72.6757257  59.6641068  33.3237534
  72.4697257  60.7311068  31.9097534  71.4907257  58.8911068  31.6267534
  71.6927257  58.7341068  30.5677534  71.3417257  57.5501068  32.3737534
  72.3267257  57.0841068  32.3947534  70.6777257  56.9261068  31.7757534
  70.9407257  57.7611068  33.3657534  70.1657257  59.6521068  31.6837534
  69.3847257  59.0011068  31.2907534  69.8857257  60.0491068  32.6597534
  70.1997257  60.5731068  31.1027534  74.2257257  59.5581068  30.1937534
  74.3767257  60.6711068  29.6927534  74.2137257  58.4541068  29.4857534
  74.0237257  57.5811068  29.9627534  74.5057257  58.4451068  27.9557534
  74.6997257  59.4451068  27.5667534  75.7807257  57.6111068  27.6347534
  75.9887257  57.5751068  26.5657534  76.9307257  58.3031068  28.3117534
  76.8427257  59.3141068  27.9137534  76.8787257  58.2161068  29.3977534
  77.8557257  57.9661068  27.8447534  75.6197257  56.1771068  28.2177534
  74.8557257  55.6581068  27.6387534  75.1247257  56.2151068  29.1877534
  76.5647257  55.6341068  28.1917534  73.2847257  57.9211068  27.1567534
  72.5207257  57.1621068  27.6877534  73.2907257  58.0941068  25.8397534
  74.0107257  58.7201068  25.5007534  72.4517257  57.4471068  24.7797534
  71.4737257  57.9131068  24.8987534  73.1467257  57.8631068  23.4917534
  73.3237257  58.9381068  23.4727534  74.1017257  57.3601068  23.3337534
  72.2777257  57.4861068  22.4227534  72.8267257  57.3491068  21.6477534
  72.2067257  55.9881068  24.8447534  71.0797257  55.4881068  24.5437534
  73.2397257  55.2431068  25.1967534  74.0837257  55.7681068  25.3897534
  73.3837257  53.7731068  25.3467534  72.9387257  53.3071068  24.4677534
  74.8697257  53.3581068  25.5377534  75.1607257  53.5541068  26.5697534
  75.0187257  52.2851068  25.4137534  75.9827257  54.0091068  24.7227534
  76.1457257  55.0621068  24.9547534  76.8727257  53.4591068  25.0297534
  75.8207257  53.7791068  23.2227534  76.3777257  54.6511068  22.5277534
  75.3507257  52.7241068  22.8057534  72.6107257  53.2071068  26.5647534
  72.0707257  52.0981068  26.6357534  72.4587257  54.0331068  27.6257534
  72.7297257  54.9841068  27.4047534  71.6497257  53.8201068  28.8027534
  71.7017257  52.7801068  29.1227534  72.4337257  54.6231068  29.9547534
  72.5897257  55.6871068  29.7817534  71.8747257  54.5121068  30.8837534
  73.8257257  53.9991068  30.2227534  73.8217257  52.9111068  30.1547534
  74.3667257  54.0881068  29.2807534  74.5667257  54.4171068  31.4597534
  75.1737257  53.5681068  32.0577534  74.6417257  55.6461068  31.6817534
  70.1867257  54.2681068  28.6687534  69.3747257  53.8651068  29.4627534
  69.8067257  55.2141068  27.8177534  70.4767257  55.5641068  27.1437534
  68.4807257  55.8121068  27.7217534  67.8247257  55.3631068  28.4667534
  68.5467257  57.3071068  28.1147534  67.5867257  57.7951068  28.2837534
  69.0417257  57.2921068  29.0857534  69.6847257  58.3121068  27.0357534
  70.8307257  57.6621068  27.2567534  67.7487257  55.6841068  26.3527534
  68.4987257  55.7411068  25.3787534  66.4277257  55.5711068  26.2687534
  65.8917257  55.4131068  27.1137534  65.7657257  55.3541068  25.0157534
  66.3557257  55.7191068  24.1757534  65.4497257  53.8201068  24.8797534
  64.7927257  53.5381068  25.7027534  64.7837257  53.5021068  23.5647534
  65.1367257  54.2201068  22.8257534  63.7167257  53.7211068  23.6127534
  64.9067257  52.4611068  23.2647534  66.6317257  52.9801068  24.9097534
  66.8287257  52.7271068  25.8137534  64.4337257  56.0681068  24.9287534
  63.5827257  55.9721068  25.7377534  64.1927257  56.8321068  23.8307534
  65.0667257  57.0421068  23.3647534  62.9697257  57.5371068  23.4797534
  62.4867257  57.8151068  24.4167534  63.3677257  58.7241068  22.5557534
  63.7727257  59.4871068  23.2217534  64.1257257  58.4251068  21.8317534
  62.2637257  59.3511068  21.6187534  62.2477257  58.9201068  20.6167534
  61.2897257  59.0811068  22.0247534  62.3107257  60.9491068  21.5877534
  61.2827257  61.6311068  21.2917534  63.4027257  61.5061068  21.8557534
  62.0047257  56.5741068  22.8347534  62.3257257  56.2331068  21.7197534
  60.8557257  56.2191068  23.5007534  60.7087257  56.6251068  24.4167534
  59.7697257  55.4991068  22.8147534  59.8687257  55.7061068  21.7487534
  59.9847257  53.9511068  22.9057534  59.3037257  53.5031068  22.1817534
  61.0197257  53.7661068  22.6187534  59.8427257  53.4211068  24.3687534
  60.6387257  53.8531068  24.9767534  58.9377257  53.7941068  24.8477534
  59.9877257  51.6321068  24.5947534  61.8267257  51.6061068  24.5327534
  62.1217257  52.1431068  23.6227534  62.1647257  51.9461068  25.5197534
  62.2607257  50.6001068  24.4707534  58.3347257  55.9441068  23.2717534
  58.1827257  56.5811068  24.3067534  57.2757257  55.3721068  22.6477534
  57.3857257  54.8731068  21.7727534  55.9027257  55.6461068  23.0677534
  55.7057257  56.7091068  23.2017534  54.8677257  55.2401068  22.0017534
  53.8867257  55.4461068  22.4307534  54.9427257  55.8941068  21.1337534
  55.0587257  53.9151068  21.6387534  54.9947257  53.8461068  20.6837534
  55.5577257  54.9711068  24.3927534  56.1927257  53.9771068  24.7347534
  54.6657257  55.6001068  25.1987534  54.2837257  56.5251068  25.0427534
  54.2087257  54.9451068  26.4787534  54.9957257  55.0841068  27.2197534
  52.9247257  55.6731068  27.0967534  53.1757257  56.7041068  27.3447534
  52.1847257  55.8141068  26.3087534  52.2437257  55.0341068  28.2267534
  52.7297257  54.8801068  29.4917534  53.7037257  55.1851068  29.8437534
  51.7297257  54.4121068  30.3417534  51.8197257  54.1281068  31.3067534
  50.5637257  54.1571068  29.6167534  49.2337257  53.7511068  29.8767534
  48.9487257  53.3861068  30.8527534  48.2787257  53.6991068  28.8227534
  47.2877257  53.3581068  29.0827534  48.5477257  54.2651068  27.5627534
  47.8537257  54.1591068  26.7417534  49.8657257  54.6311068  27.2887534
  50.1437257  54.9851068  26.3077534  50.8967257  54.5261068  28.2657534
  53.9427257  53.4481068  26.2417534  54.5397257  52.6351068  26.9507534
  53.1427257  53.1571068  25.2227534  52.7727257  53.8711068  24.6067534
  52.7537257  51.7621068  24.9117534  52.3277257  51.3591068  25.8307534
  51.7027257  51.6891068  23.7827534  50.9197257  52.3961068  24.0587534
  52.3647257  52.1821068  22.5347534  52.9837257  51.3721068  22.1497534
  51.6627257  52.3491068  21.7167534  52.9127257  53.0631068  22.8687534
  51.0117257  50.2921068  23.6747534  51.6017257  49.4341068  23.3537534
  50.3347257  50.4981068  22.8467534  50.5077257  50.0311068  24.6057534
  53.9397257  50.8061068  24.6977534  53.8687257  49.7101068  25.2887534
  55.0367257  51.2091068  24.0017534  54.9977257  52.0041068  23.3747534
  56.3337257  50.4141068  23.9147534  56.1297257  49.3611068  23.7217534
  57.2297257  50.8981068  22.7927534  57.5657257  51.9231068  22.9457534
  58.0397257  50.1791068  22.6637534  56.5457257  50.8431068  21.4337534
  55.6947257  51.5091068  21.5717534  57.2277257  51.1911068  20.6567534
  55.9747257  49.4521068  21.0027534  55.0857257  49.1521068  21.5567534
  55.5127257  49.4941068  20.0167534  57.0147257  48.4411068  21.0257534
  57.8987257  48.6671068  21.4577534  56.6557257  47.2331068  20.7007534
  55.5797257  46.9501068  20.0397534  55.0017257  47.6231068  19.5567534
  55.4027257  45.9771068  19.8377534  57.4007257  46.2901068  21.1537534
  58.3237257  46.5601068  21.4627534  57.0397257  45.3551068  21.0287534
  57.1197257  50.4571068  25.2437534  57.8447257  49.5131068  25.5607534
  57.0267257  51.5771068  25.9627534  56.6497257  52.4411068  25.5917534
  57.7597257  51.6891068  27.2597534  58.8357257  51.6101068  27.1047534
  57.5647257  52.9871068  27.9347534  58.4107257  53.1971068  28.5897534
  57.6037257  53.8041068  27.2137534  56.4537257  53.0901068  28.6707534
  55.6847257  52.9671068  28.1087534  57.2887257  50.5121068  28.1607534
  58.1337257  49.9071068  28.8127534  55.9417257  50.2891068  28.1477534
  55.4437257  50.9521068  27.5657534  55.4607257  49.2511068  29.0377534
  55.9747257  49.4161068  29.9847534  53.9527257  49.3411068  29.1627534
  53.4287257  49.3651068  28.2067534  53.4497257  48.1551068  29.9297534
  52.3707257  48.1981068  30.0827534  53.8257257  48.1831068  30.9527534
  53.7517257  47.2041068  29.4917534  53.6207257  50.6311068  29.8427534
  54.0307257  50.7081068  30.8507534  54.1267257  51.4851068  29.3917534
  52.2027257  51.1321068  29.9697534  51.6497257  51.2711068  29.0407534
  52.3107257  52.1111068  30.4357534  51.6717257  50.4541068  30.6387534
  55.8837257  47.8641068  28.5527534  56.2957257  46.9851068  29.2687534
  55.8787257  47.6551068  27.1927534  55.4417257  48.3751068  26.6297534
  56.1187257  46.3271068  26.5637534  55.5497257  45.5601068  27.0887534
  55.7457257  46.4121068  25.0517534  56.2037257  47.3341068  24.6957534
  56.1777257  45.2651068  24.0847534  55.5027257  44.4191068  24.2127534
  57.2097257  44.9391068  24.2207534  56.0047257  45.5581068  23.0487534
  54.2057257  46.6401068  25.0067534  53.7477257  45.6531068  25.0717534
  53.8817257  47.3021068  25.8107534  53.7967257  47.0691068  23.5727534
  54.0517257  48.1031068  23.3427534  52.7127257  47.1781068  23.5297534
  54.0687257  46.3081068  22.8407534  57.6197257  45.9971068  26.8537534
  57.8877257  44.8321068  27.1047534  58.5447257  46.9431068  26.8057534
  58.2077257  47.8981068  26.7777534  59.8797257  46.7171068  27.1817534
  60.3057257  45.8831068  26.6237534  60.6657257  47.9721068  26.7477534
  60.8307257  47.8941068  25.6727534  60.0017257  48.8121068  26.9527534
  62.0077257  48.1991068  27.2797534  63.2287257  47.9171068  26.7047534
  63.4267257  47.4801068  25.8157534  64.1767257  48.4491068  27.3897534
  65.2417257  48.4091068  27.2137534  63.7087257  48.9441068  28.5487534
  62.2947257  48.8521068  28.4337534  61.6357257  49.2621068  29.1847534
  60.0207257  46.3591068  28.6067534  60.5327257  45.2781068  28.9517534
  59.3637257  47.0751068  29.5687534  58.8297257  47.8641068  29.2247534
  59.5407257  46.7371068  31.0817534  60.5817257  46.4721068  31.2667534
  59.2397257  48.0021068  31.9057534  58.2767257  48.3651068  31.5467534
  59.1017257  47.7181068  32.9487534  60.2867257  49.0891068  31.8087534
  61.6287257  48.9071068  32.2197534  61.9837257  47.9111068  32.4397534
  62.5097257  49.9631068  32.3017534  63.4957257  49.7931068  32.7097534
  62.0497257  51.2721068  32.0437534  62.6617257  52.1541068  32.1627534
  60.6587257  51.5271068  31.8077534  60.3497257  52.5541068  31.6877534
  59.8317257  50.4121068  31.7257534  58.7987257  50.6031068  31.4717534
  58.7527257  45.5171068  31.5437534  58.6287257  45.2661068  32.6967534
  58.1317257  44.8561068  30.5797534  58.2257257  45.1861068  29.6267534
  57.3247257  43.6231068  30.8227534  57.4097257  43.4771068  31.8997534
  55.8157257  43.7531068  30.3747534  55.7857257  44.2651068  29.4127534
  55.3077257  42.7991068  30.2427534  55.0097257  44.5251068  31.4627534
  54.4047257  43.9511068  32.3137534  55.0877257  45.8341068  31.4867534
  55.4157257  46.3771068  30.6977534  54.7657257  46.2831068  32.3357534
  58.0057257  42.3291068  30.2607534  57.3887257  41.2971068  30.1687534
  59.2967257  42.3871068  29.8557534  59.5597257  43.3381068  29.6257534
  60.2067257  41.2051068  29.6307534  61.0687257  41.6191068  29.1067534
  60.8247257  40.6981068  30.9677534  60.1177257  40.1541068  31.5937534
  61.5687257  39.9601068  30.6667534  61.5147257  41.6351068  31.8787534
  62.3627257  42.1271068  31.4007534  60.6877257  42.7261068  32.5907534
  61.2487257  43.2131068  33.3877534  59.7257257  42.3971068  32.9827534
  60.5277257  43.5741068  31.9247534  62.0567257  40.8421068  33.0687534
  61.2077257  40.5071068  33.6637534  62.6147257  39.9781068  32.7057534
  62.7367257  41.4211068  33.6937534  59.6227257  40.0421068  28.8097534
  59.8817257  38.8791068  29.1657534  58.8627257  40.2771068  27.7727534
  58.8677257  41.2591068  27.5227534  58.3677257  39.2781068  26.7857534
  57.6957257  38.5891068  27.2977534  57.4327257  39.9961068  25.8057534
  57.9547257  40.7481068  25.2137534  57.0707257  39.1651068  25.1997534
  56.2387257  40.6741068  26.3647534  55.1497257  39.9161068  26.9877534
  55.0937257  38.8381068  26.9607534  54.0267257  40.5641068  27.5787534
  53.0567257  40.1491068  27.8087534  53.9917257  41.9871068  27.5667534
  53.1167257  42.4871068  27.9567534  54.9107257  42.6581068  26.7947534
  54.7537257  43.7051068  26.5787534  56.0357257  42.0591068  26.2107534
  56.7727257  42.6801068  25.7237534  59.5927257  38.6191068  26.1107534
  60.6027257  39.3071068  25.8457534  59.4197257  37.2951068  25.7907534
  58.5737257  36.7591068  25.9427534  60.4447257  36.6181068  24.9757534
  61.3887257  37.1631068  24.9537534  60.6637257  35.7451068  25.5907534
  59.9547257  36.4241068  23.5997534  60.6857257  35.9431068  22.7657534
  58.7327257  36.8541068  23.2357534  58.0577257  37.1721068  23.9207534
  58.1767257  36.6751068  21.9027534  58.5307257  35.6991068  21.5707534
  56.6417257  36.7611068  21.8617534  56.1227257  37.5621068  22.3867534
  56.2117257  36.7501068  20.8597534  56.1317257  35.5811068  22.6197534
  56.8557257  34.5341068  22.7537534  54.9177257  35.5341068  23.0027534
  58.8017257  37.6761068  20.9057534  58.9937257  38.8211068  21.2937534
  59.1287257  37.3991068  19.6047534  59.2457257  36.4081068  19.4307534
  59.6447257  38.3461068  18.5587534  60.3547257  39.0581068  18.9777534
  60.3707257  37.5541068  17.4117534  59.6717257  36.8221068  17.0067534
  60.5667257  38.2041068  16.5587534  61.7157257  37.0231068  17.7867534
  61.5597257  36.1341068  18.3977534  62.2287257  36.6191068  16.9147534
  62.6937257  38.0091068  18.4737534  62.4017257  38.6561068  19.5307534
  63.7147257  38.3251068  17.8667534  58.5647257  39.2291068  17.8427534
  58.8057257  40.1401068  17.0567534  57.2697257  38.9621068  18.2377534
  57.0377257  38.0911068  18.7007534  56.1197257  39.6461068  17.5827534
  56.1707257  39.4141068  16.5187534  54.7407257  39.1531068  18.1487534
  54.7757257  39.4041068  19.2097534  53.5027257  39.8151068  17.5957534
  53.5777257  39.8211068  16.5077534  52.6887257  39.1401068  17.8577534
  53.3737257  40.7751068  18.0937534  54.6747257  37.6021068  18.0937534
  54.9557257  37.2791068  17.0917534  53.6677257  37.3551068  18.4317534
  55.2397257  37.1301068  18.8967534  56.2087257  41.1871068  17.5927534
  56.5007257  41.8431068  18.5637534  56.1127257  41.8541068  16.4147534
  55.9237257  41.2611068  15.0467534  54.9397257  40.7771068  15.0687534
  56.6937257  40.5311068  14.7677534  55.7977257  42.4811068  14.1507534
  54.7737257  42.8251068  14.0097534  56.0687257  42.3001068  13.1107534
  56.6757257  43.5021068  14.8097534  56.4557257  44.5361068  14.5457534
  57.7387257  43.3841068  14.5977534  56.4507257  43.2811068  16.3277534
  57.3357257  43.5241068  16.9157534  55.2447257  44.1641068  16.7307534
  55.3777257  45.3551068  16.9467534  54.0387257  43.6201068  17.0337534
  54.0147257  42.6221068  16.8607534  52.7147257  44.1941068  17.3647534
  52.5897257  45.1751068  16.9057534  51.5517257  43.3201068  16.8487534
  51.5247257  42.4321068  17.4797534  50.6557257  43.9401068  16.8717534
  51.7647257  42.8931068  15.3577534  52.6417257  42.2471068  15.3917534
  50.6167257  41.9061068  14.9027534  50.5157257  41.0121068  15.5187534
  50.7897257  41.5371068  13.8917534  49.6907257  42.4811068  14.8927534
  51.9767257  44.1041068  14.4907534  52.3627257  43.7421068  13.5377534
  51.0157257  44.5731068  14.2807534  52.6707257  44.8441068  14.8887534
  52.5797257  44.4731068  18.9087534  53.1107257  43.7601068  19.6987534
  51.8327257  45.5081068  19.3547534  51.3767257  46.1171068  18.6857534
  51.6587257  45.8851068  20.7287534  52.5507257  45.6901068  21.3237534
  51.0767257  47.2781068  20.7957534  50.2447257  47.2521068  20.0917534
  50.6097257  47.4361068  21.7687534  52.0227257  48.4541068  20.5197534
  51.5457257  49.3891068  20.8137534  52.8807257  48.3001068  21.1737534
  52.4697257  48.4811068  19.0177534  53.6377257  48.8001068  18.7007534
  51.6657257  48.0831068  18.1397534  50.6497257  44.8751068  21.4377534
  50.3847257  44.9371068  22.6007534  50.1837257  43.8511068  20.6877534
  50.7117257  43.7871068  19.8247534  49.0627257  43.0061068  20.9617534
  48.1297257  43.5421068  21.1357534  48.8087257  42.1681068  19.6377534
  48.6337257  42.8271068  18.7867534  49.9427257  41.1491068  19.4287534
  49.9937257  40.4141068  20.2317534  49.6907257  40.6191068  18.5107534
  50.8747257  41.6991068  19.2947534  47.4817257  41.3821068  19.8067534
  47.1607257  41.1221068  18.7977534  46.7487257  42.0751068  20.2207534
  47.5507257  40.4541068  20.3737534  49.3007257  42.0611068  22.1257534
  48.4117257  41.5361068  22.8107534  50.5687257  41.9981068  22.5477534
  51.1867257  42.7021068  22.1607534  51.0997257  41.2261068  23.6977534
  50.7927257  40.1891068  23.5637534  52.6867257  41.1571068  23.6067534
  52.9297257  42.2041068  23.7867534  53.0347257  40.4931068  24.3977534
  53.3507257  40.7301068  22.2957534  53.0177257  41.4291068  21.5287534
  54.8727257  40.9701068  22.4557534  55.2297257  40.5991068  23.4167534
  54.9897257  42.0391068  22.6367534  55.5087257  40.6541068  21.6297534
  52.9777257  39.3661068  21.8007534  53.4457257  38.6711068  22.4987534
  51.9007257  39.2011068  21.7857534  53.2697257  39.2751068  20.7547534
  50.6437257  41.6471068  25.0807534  50.5717257  40.7661068  25.9287534
  50.1107257  42.9181068  25.1827534  50.1127257  43.5241068  24.3707534
  49.5967257  43.4421068  26.4457534  50.2347257  43.2141068  27.3007534
  49.4697257  45.0071068  26.3407534  48.8597257  45.2581068  25.4727534
  48.9427257  45.2961068  27.2497534  50.7927257  45.7641068  26.3457534
  51.3347257  45.2391068  25.5587534  50.4147257  47.1801068  25.9687534
  49.4337257  47.5221068  26.2977534  50.4557257  47.4241068  24.9067534
  51.0577257  47.9481068  26.3987534  51.5407257  45.7171068  27.6687534
  50.9437257  46.0591068  28.5137534  51.8467257  44.6941068  27.8897534
  52.4267257  46.3351068  27.5277534  48.3187257  42.7091068  26.8457534
  47.8387257  42.9381068  27.9327534  47.7187257  41.9801068  25.9487534
  48.1747257  41.8951068  25.0477534  46.4937257  41.2211068  26.2497534
  45.9927257  41.6731068  27.1057534  45.4997257  41.3031068  25.1097534
  45.8067257  40.5931068  24.3417534  44.5467257  40.8811068  25.4297534
  45.2267257  42.7041068  24.6067534  44.3327257  43.4751068  24.8697534
  46.0347257  43.1211068  23.6397534  46.7437257  42.4561068  23.3557534
  46.0267257  44.0821068  23.3217534  46.7777257  39.6921068  26.5857534
  45.8797257  38.8921068  26.4137534  48.0237257  39.3181068  26.9337534
  48.8187257  39.9291068  26.7867534  48.3167257  37.8711068  27.1527534
  48.1577257  37.3401068  26.2147534  49.8067257  37.7771068  27.3907534
  50.3277257  37.9891068  26.4567534  50.0247257  38.5061068  28.1707534
  50.3227257  36.3761068  27.9067534  49.9017257  36.1341068  28.8827534
  49.9787257  35.6121068  27.2087534  51.8047257  36.3861068  28.0557534
  52.3227257  36.6381068  27.1307534  52.1527257  37.1911068  28.7027534
  52.3357257  35.0841068  28.4557534  52.2477257  34.3211068  27.7987534
  53.0037257  34.8321068  29.5847534  53.0717257  35.6831068  30.6137534
  52.4497257  36.4771068  30.6597534  53.6727257  35.3871068  31.3697534
  53.4857257  33.6991068  29.8507534  53.5587257  33.0321068  29.0957534
  53.9577257  33.5901068  30.7367534  47.4547257  37.2111068  28.2327534
  47.3817257  36.0081068  28.2267534  46.7807257  37.9371068  29.1317534
  46.8237257  38.9441068  29.0387534  45.8027257  37.5011068  30.0927534
  45.5587257  38.3751068  30.6957534  44.4857257  37.0861068  29.4247534
  44.5927257  36.2001068  28.7987534  43.3067257  36.9071068  30.3797534
  43.3687257  36.0651068  31.0697534  42.3157257  36.9821068  29.9307534
  43.1907257  37.6941068  31.1247534  44.1047257  38.0671068  28.5507534
  44.7417257  38.3691068  27.8987534  46.3347257  36.4281068  31.1087534
  45.6927257  35.5951068  31.6267534  47.5807257  36.5081068  31.5687534
  48.1667257  37.2491068  31.2017534  48.2307257  35.6651068  32.6217534
  47.4547257  35.0801068  33.1137534  49.0787257  34.6111068  31.9127534
  49.8377257  35.1141068  31.3147534  49.6257257  33.9291068  32.5637534
  48.2357257  33.6101068  31.0467534  47.5997257  34.2541068  30.4397534
  49.1987257  32.8701068  30.1277534  49.7717257  33.6621068  29.6437534
  48.5207257  32.2151068  29.5827534  49.8237257  32.2371068  30.7587534
  47.2977257  32.6851068  31.8207534  47.7937257  31.8871068  32.3727534
  46.6647257  33.2961068  32.4637534  46.6167257  32.2411068  31.0947534
  49.0507257  36.4581068  33.6557534  49.5447257  37.5101068  33.3417534
  49.0607257  36.0181068  34.8777534  48.4677257  35.2171068  35.0597534
  49.9877257  36.4941068  35.9357534  50.0167257  37.5771068  35.8167534
  49.4217257  36.1731068  37.3037534  49.2257257  35.1041068  37.3977534
  50.1547257  36.5121068  38.0357534  48.2277257  36.9551068  37.6287534
  47.6347257  37.7191068  36.8907534  47.7297257  36.7611068  38.7957534
  48.1617257  36.1091068  39.4397534  46.8577257  37.2081068  39.0517534
  51.4367257  35.9791068  35.7857534  51.5877257  34.8381068  35.3867534
  52.4187257  36.7971068  36.1297534  52.2217257  37.7851068  36.2367534
  53.7717257  36.3411068  36.0017534  53.9487257  35.9041068  35.0197534
  54.6947257  37.5641068  36.1317534  54.6787257  37.9371068  37.1567534
  55.6837257  37.1251068  35.9987534  54.5407257  38.6891068  35.0667534
  54.4327257  38.3261068  33.7357534  54.4517257  37.2881068  33.4387534
  54.6467257  39.2781068  32.7437534  54.6757257  38.8171068  31.7667534
  54.9377257  40.5841068  33.0987534  55.1317257  41.3231068  32.3357534
  54.9307257  41.0181068  34.4637534  55.1377257  42.0511068  34.7007534
  54.7587257  40.0161068  35.4617534  54.9637257  40.2061068  36.5047534
  54.1367257  35.3041068  37.0237534  53.7917257  35.4561068  38.1757534
  54.8827257  34.2831068  36.6847534  54.9057257  33.9811068  35.7187534
  55.4727257  33.3441068  37.7227534  54.6757257  33.0371068  38.4007534
  55.9087257  32.0231068  37.0377534  56.1987257  31.3271068  37.8247534
  55.0297257  31.5591068  36.5897534  56.9527257  31.9241068  35.9927534
  57.8207257  32.4441068  36.3967534  57.2767257  30.9181068  35.7277534
  56.6927257  32.6151068  34.6947534  57.6257257  32.9681068  33.8847534
  55.4987257  32.8541068  34.3137534  56.5347257  33.9361068  38.6187534
  57.0807257  34.9161068  38.1957534  56.9457257  33.3861068  39.8317534
  56.4277257  32.5611068  40.1087534  57.7377257  34.0471068  40.8947534
  58.6017257  34.5111068  40.4177534  56.7947257  34.9841068  41.6287534
  56.4537257  35.6721068  40.8557534  55.9767257  34.4321068  42.0917534
  57.5867257  35.9041068  42.6517534  57.9757257  35.3111068  43.4797534
  58.4197257  36.2421068  42.0357534  56.6887257  37.2961068  43.3957534
  55.3927257  36.4181068  44.3527534  55.6177257  35.3481068  44.2617534
  55.2737257  36.7931068  45.3767534  54.4167257  36.6921068  43.9337534
  58.2207257  32.9721068  41.8877534  57.5697257  31.9381068  42.0387534
  59.3817257  33.1131068  42.5087534  59.7367257  34.0551068  42.3937534
  59.9457257  32.1681068  43.5497534  59.7987257  31.1471068  43.1977534
  61.3587257  32.5241068  43.7667534  61.5167257  33.5951068  43.8877534
  61.7357257  32.1621068  44.7227534  62.2397257  31.9381068  42.6647534
  62.1357257  30.8531068  42.6577534  61.7947257  32.3901068  41.7777534
  63.7277257  32.2671068  42.8497534  64.1407257  32.0891068  41.8567534
  63.6927257  33.3041068  43.1847534  64.4657257  31.3471068  43.8327534
  64.0627257  31.5011068  44.8337534  64.1627257  30.3281068  43.5937534
  65.9277257  31.6481068  43.6517534  66.4877257  31.0101068  44.1987534
  66.1157257  32.6321068  43.7807534  66.1577257  31.4341068  42.6927534
  59.1927257  32.4211068  44.8677534  58.3877257  33.3271068  44.8337534
  59.5297257  31.6981068  45.9787534  60.3147257  31.0591068  46.0247534
  59.0377257  32.1181068  47.2097534  57.9537257  32.2171068  47.1527534
  59.1987257  30.9801068  48.2417534  58.9877257  30.0311068  47.7507534
  58.5227257  31.0841068  49.0907534  60.2227257  30.8981068  48.6087534
  59.5397257  33.5361068  47.6217534  60.6437257  33.9271068  47.2307534
  58.7297257  34.2601068  48.3657534  57.8567257  33.7711068  48.5277534
  58.8737257  35.7251068  48.5147534  59.9277257  35.9521068  48.6757534
  58.2487257  36.3581068  47.2267534  58.6317257  35.7901068  46.3787534
  57.1917257  36.0941068  47.1877534  58.5487257  37.8341068  46.9807534
  57.5937257  38.8321068  47.2227534  56.5707257  38.5351068  47.4027534
  57.9127257  40.2011068  47.0717534  57.1737257  40.9821068  47.1767534
  59.2497257  40.6051068  46.7847534  59.4027257  41.6651068  46.6487534
  60.2237257  39.6211068  46.5937534  61.2457257  39.9591068  46.4997534
  59.8707257  38.2391068  46.6997534  60.5597257  37.4101068  46.6417534
  58.3527257  36.4131068  49.7637534  57.3747257  35.9631068  50.3807534
  58.9587257  37.6151068  50.0457534  59.7437257  37.8841068  49.4637534
  58.4487257  38.7281068  50.9367534  57.3607257  38.6631068  50.9307534
  58.9827257  38.4661068  52.3607534  58.6467257  37.4421068  52.5197534
  60.0727257  38.4801068  52.3707534  58.3317257  39.3371068  53.4817534
  58.8167257  39.1491068  54.4397534  58.6397257  40.3651068  53.2857534
  56.7757257  39.2181068  53.4897534  56.4347257  39.4001068  52.4697534
  56.4787257  38.3101068  54.0147534  56.3487257  40.3401068  54.5527534
  56.0737257  39.8821068  55.5027534  57.1277257  41.0851068  54.7157534
  55.1367257  41.1551068  54.0177534  55.3877257  41.8081068  53.2887534
  54.7417257  41.6541068  54.8017534  54.3967257  40.5331068  53.7247534
  58.9547257  40.1061068  50.4207534  60.1297257  40.4051068  50.5347534
  57.9967257  41.0141068  49.9897534  57.0247257  40.7291068  50.0187534
  58.1297257  42.5071068  50.0977534  59.1747257  42.6731068  49.8327534
  57.2387257  43.0501068  48.9647534  57.7657257  42.9101068  48.0207534
  56.3257257  42.4551068  48.9417534  56.8577257  44.5151068  48.9287534
  56.5817257  44.9071068  49.9077534  58.0927257  45.2821068  48.2807534
  59.0267257  44.9441068  48.7287534  58.1627257  46.3631068  48.4007534
  58.2867257  44.9291068  47.2677534  55.6947257  44.7221068  47.9417534
  55.8487257  44.2191068  46.9877534  54.8317257  44.3481068  48.4927534
  55.7357257  45.7801068  47.6827534  57.8347257  42.9871068  51.5427534
  57.0487257  42.4331068  52.2757534  58.5157257  44.0671068  51.8907534
  59.2907257  44.3101068  51.2847534  58.1397257  45.1691068  52.8787534
  57.0637257  45.0211068  52.9687534  58.7287257  44.8431068  54.2937534
  59.8087257  44.9901068  54.3177534  58.2577257  45.5351068  54.9917534
  58.3807257  43.4331068  54.7907534  57.3377257  43.2441068  54.5367534
  58.9457257  42.6931068  54.2267534  58.4867257  43.2631068  56.3567534
  58.2477257  42.2381068  56.6387534  59.4887257  43.5611068  56.6657534
  57.4167257  44.0041068  57.0927534  56.6267257  44.3831068  56.5907534
  57.3357257  44.2001068  58.4057534  58.2787257  43.7411068  59.1937534
  58.8977257  43.1131068  58.7017534  58.1967257  43.8311068  60.1967534
  56.2917257  44.8901068  58.7287534  55.6317257  45.0941068  57.9917534
  56.2017257  45.1791068  59.6927534  58.4527257  46.5581068  52.3767534
  59.2447257  46.7981068  51.5027534  57.7817257  47.5761068  52.9487534
  57.1597257  47.4011068  53.7297534  57.8067257  48.9861068  52.4517534
  58.8197257  49.1981068  52.1097534  56.8627257  49.0741068  51.2547534
  57.0357257  50.0671068  50.8397534  57.1887257  48.3711068  50.4897534
  55.5657257  48.9141068  51.6727534  55.5227257  47.9791068  51.8847534
  57.4967257  50.0291068  53.4797534  56.7097257  49.7971068  54.3757534
  58.1137257  51.2091068  53.3677534  58.8347257  51.2041068  52.6557534
  57.8987257  52.4201068  54.2067534  57.0147257  52.2471068  54.8217534
  59.0867257  52.6711068  55.1027534  59.9947257  52.5811068  54.5067534
  59.0937257  53.7081068  55.4407534  59.1447257  51.6941068  56.2557534
  58.1337257  51.6751068  57.0187534  60.2857257  51.3111068  56.6097534
  57.5797257  53.7251068  53.3887534  57.7347257  53.7051068  52.1667534
  57.3897257  54.8451068  54.0257534  57.2557257  54.8491068  55.0297534
  57.6347257  56.2151068  53.5037534  58.1177257  56.1591068  52.5287534
  56.2827257  56.9961068  53.5667534  55.8067257  57.0461068  54.5457534
  56.6717257  57.9911068  53.3517534  55.2927257  56.5201068  52.5557534
  54.3987257  55.4861068  52.9117534  54.4477257  55.0931068  53.9167534
  53.4357257  55.1391068  51.9527534  52.7417257  54.3381068  52.1627534
  53.4547257  55.6891068  50.6157534  52.5987257  55.2521068  49.6457534
  52.7627257  54.3121068  49.5377534  54.4197257  56.7411068  50.3187534
  54.4057257  57.1431068  49.3157534  55.2847257  57.1331068  51.3027534
  56.0947257  57.7961068  51.0397534  58.6267257  56.9381068  54.4387534
  58.5497257  56.8161068  55.6147534  59.3897257  57.7781068  53.7947534
  59.3707257  57.7861068  52.7827534  60.4037257  58.5631068  54.4037534
  60.3757257  58.2541068  55.4487534  61.7417257  58.1501068  53.8987534
  61.7767257  58.5101068  52.8707534  62.8517257  58.9201068  54.7397534
  63.8467257  58.6191068  54.4117534  62.5907257  59.9721068  54.6207534
  62.8497257  58.6991068  55.8067534  61.8987257  56.6411068  54.1287534
  61.2657257  56.0541068  53.4627534  61.5337257  56.4011068  55.1277534
  62.9447257  56.3451068  54.0567534  60.0347257  60.1011068  54.1807534
  60.1277257  60.5971068  53.0897534  59.7347257  60.8261068  55.2787534
  59.8747257  60.4191068  56.1957534  59.3847257  62.2631068  55.2487534
  58.9417257  62.5041068  54.2827534  58.5157257  62.5911068  56.4967534
  59.2207257  62.7051068  57.3207534  57.9717257  63.5261068  56.3597534
  57.4627257  61.6321068  56.8497534  58.0497257  60.7431068  57.0757534
  57.0247257  62.0161068  57.7707534  56.4357257  61.1461068  55.7727534
  56.6097257  60.9981068  54.5857534  55.2927257  60.7741068  56.2477534
  54.6337257  60.4301068  55.5597534  55.0827257  60.7591068  57.2387534
  60.6627257  63.1611068  55.2677534  60.7607257  64.1841068  54.6017534
  61.7267257  62.7261068  55.9207534  61.6787257  61.7991068  56.3277534
  63.0287257  63.3621068  56.2147534  63.0697257  64.3351068  55.7247534
  63.1777257  63.8351068  57.6617534  62.7847257  63.0891068  58.3527534
  64.2017257  64.0601068  57.9597534  62.3077257  65.0751068  57.9667534
  62.6187257  65.9671068  57.4217534  61.2877257  64.8181068  57.6807534
  62.2707257  65.3181068  59.5077534  61.6457257  64.6021068  60.0427534
  63.2587257  65.2381068  59.9597534  61.5377257  66.6601068  59.5267534
  62.0627257  67.3811068  58.8987534  60.5177257  66.5451068  59.1617534
  61.4197257  67.2671068  60.8657534  61.2527257  68.2491068  60.6987534
  62.1617257  67.2101068  61.5487534  60.5477257  67.0151068  61.3087534
  64.2057257  62.4871068  55.7977534  64.1337257  61.3351068  56.1677534
  65.2517257  62.8561068  55.0707534  65.6377257  64.1821068  54.9087534
  65.3607257  64.5781068  55.8927534  64.9987257  64.6241068  54.1337534
  67.1987257  64.2281068  54.7017534  67.7997257  64.0461068  55.5927534
  67.4887257  65.1841068  54.2647534  67.3717257  63.0191068  53.8837534
  68.3557257  62.6221068  54.1297534  67.0767257  63.2351068  52.8577534
  66.3067257  62.0401068  54.5057534  65.9377257  61.3711068  53.7287534
  67.0067257  61.0771068  55.4757534  67.1607257  61.2661068  56.6567534
  67.4357257  59.9471068  54.8337534  67.3447257  59.9081068  53.8257534
  68.2167257  58.9031068  55.5497534  67.8027257  58.6901068  56.5347534
  68.4157257  57.6751068  54.6217534  68.8667257  57.9171068  53.6597534
  69.3927257  56.7061068  55.3807534  68.9407257  56.3891068  56.3207534
  70.3857257  57.1311068  55.5227534  69.6407257  55.8231068  54.7927534
  67.1297257  56.8561068  54.3307534  66.6817257  56.3831068  55.2047534
  66.3847257  57.5961068  54.0357534  67.1027257  56.0071068  53.0607534
  66.2497257  55.3291068  53.0147534  67.9377257  55.3411068  52.8427534
  66.9567257  56.6531068  52.1957534  69.5947257  59.5301068  55.7497534
  70.1947257  59.9821068  54.7857534  70.1677257  59.5181068  56.9497534
  69.5377257  59.2921068  58.2097534  69.5707257  58.2261068  58.4667534
  68.5157257  59.6871068  58.1567534  70.4327257  60.1031068  59.2357534
  70.4307257  59.7311068  60.2597534  70.2177257  61.1721068  59.2617534
  71.8287257  59.7961068  58.6907534  72.2177257  58.8381068  59.0347534
  72.5097257  60.5831068  59.0147534  71.5667257  59.8871068  57.1277534
  71.6607257  60.9511068  56.9137534  72.5897257  59.0721068  56.4077534
  72.4457257  57.9071068  56.3927534  73.7767257  59.5401068  56.1947534
  73.9347257  60.5321068  56.3247534  74.8387257  58.6831068  55.6347534
  74.3547257  58.1331068  54.8277534  75.8627257  59.5741068  54.9317534
  76.2337257  60.1151068  55.8017534  76.7227257  58.9501068  54.6887534
  75.4267257  60.6351068  53.8997534  74.2227257  60.6911068  53.5187534
  76.2837257  61.3121068  53.3477534  75.4127257  57.7071068  56.6497534
  75.7637257  56.5991068  56.2937534  75.2577257  58.0351068  57.9327534
  75.0077257  58.9911068  58.1557534  75.6127257  57.1171068  59.0167534
  76.5707257  56.6281068  58.8417534  75.7347257  58.0681068  60.2767534
  74.7777257  58.5771068  60.3967534  75.7867257  57.5871068  61.2537534
  76.7977257  59.1931068  60.2767534  76.5207257  60.3951068  60.5687534
  78.0107257  58.9181068  60.1827534  74.6477257  55.9301068  59.2747534
  74.9847257  54.8901068  59.7867534  73.3957257  56.0651068  58.8797534
  73.3207257  56.8531068  58.2477534  72.2327257  55.1141068  58.8117534
  72.3687257  54.2841068  59.5047534  70.8787257  55.9081068  59.0247534
  70.8637257  56.7131068  58.2907534  69.6127257  55.0191068  58.8477534
  69.5417257  54.1481068  59.4997534  68.7497257  55.6851068  58.8817534
  69.6717257  54.5911068  57.8467534  70.8507257  56.4731068  60.4657534
  70.8447257  55.7441068  61.2757534  69.9067257  56.9911068  60.6337534
  71.6297257  57.2291068  60.5627534  72.1737257  54.5211068  57.4067534
  71.9757257  53.3811068  57.3727534  72.5677257  55.2031068  56.3587534
  72.6917257  56.2031068  56.4647534  72.5687257  54.7031068  54.9157534
  71.6167257  54.2341068  54.6637534  72.9157257  55.7861068  53.8597534
  72.1407257  56.5361068  54.0217534  73.8767257  56.2801068  54.0047534
  72.8407257  55.2441068  52.3997534  73.2087257  54.2181068  52.4227534
  71.3857257  55.3041068  51.9067534  70.7327257  54.8281068  52.6387534
  71.2337257  54.9531068  50.8857534  71.0887257  56.3531068  51.8947534
  73.6907257  56.1491068  51.5157534  73.4477257  55.9611068  50.4697534
  73.4917257  57.2001068  51.7237534  74.7357257  55.9251068  51.7277534
  73.7077257  53.6421068  54.9187534  73.5797257  52.5721068  54.3557534
  74.8457257  54.0111068  55.5707534  74.9717257  54.9841068  55.8217534
  75.9007257  53.0481068  55.6867534  76.1477257  52.6071068  54.7207534
  77.1237257  53.7331068  56.4137534  77.4167257  54.5811068  55.7947534
  76.7937257  54.0701068  57.3957534  78.2667257  52.8081068  56.5237534
  78.9977257  53.3541068  57.1217534  78.0467257  51.9391068  57.1447534
  78.9117257  52.3371068  55.2287534  79.8657257  51.5281068  55.2797534
  78.4247257  52.6761068  54.1107534  75.3737257  51.7981068  56.3687534
  75.5647257  50.7041068  55.8517534  74.6107257  51.7681068  57.5317534
  74.2597257  52.6511068  57.8837534  74.1007257  50.6071068  58.1907534
  74.8627257  49.8291068  58.1667534  73.8167257  50.9861068  59.6157534
  73.1567257  51.8511068  59.6797534  73.1467257  50.2161068  59.9997534
  75.0677257  51.2331068  60.4597534  75.6497257  50.3121068  60.4727534
  75.6417257  52.0491068  60.0197534  74.7177257  51.5781068  61.9017534
  74.2447257  52.5541068  62.0097534  74.0767257  50.8151068  62.3437534
  76.1407257  51.5761068  62.4677534  76.4967257  50.5551068  62.3297534
  76.7397257  52.2381068  61.8427534  76.1577257  52.0561068  63.8057534
  76.0077257  53.0541068  63.8287534  77.0807257  51.9561068  64.2027534
  75.5487257  51.4601068  64.3477534  72.9767257  49.9311068  57.4287534
  73.0007257  48.7111068  57.2877534  72.0727257  50.6761068  56.8217534
  71.9967257  51.6791068  56.9407534  71.0407257  50.0381068  56.0377534
  70.4827257  49.3801068  56.7037534  70.1137257  51.1781068  55.6237534
  69.6607257  51.4981068  56.5617534  70.6757257  52.0071068  55.1947534
  69.1137257  50.7021068  54.5547534  69.5967257  50.0691068  53.8107534
  67.9137257  49.9231068  55.1007534  68.2577257  48.9501068  55.4527534
  67.1757257  49.7501068  54.3177534  67.4577257  50.5161068  55.8937534
  68.5167257  51.9211068  53.8267534  67.6537257  51.5801068  53.2567534
  68.1797257  52.6311068  54.5817534  69.2877257  52.3881068  53.2137534
  71.6797257  49.1451068  54.9467534  71.2497257  48.0251068  54.6707534
  72.6387257  49.6521068  54.2587534  72.9317257  50.5581068  54.6067534
  73.4007257  48.9831068  53.1857534  72.7377257  48.5091068  52.4617534
  74.2097257  49.9971068  52.3577534  74.7437257  50.7621068  52.9217534
  75.0357257  49.4931068  51.8557534  73.4567257  50.6281068  51.1907534
  73.3637257  49.8091068  50.4777534  72.0687257  51.2301068  51.4737534
  71.4577257  50.4181068  51.8677534  71.6317257  51.5561068  50.5297534
  71.8897257  51.9511068  52.2717534  74.2667257  51.8261068  50.6737534
  75.2297257  51.4391068  50.3427534  73.7307257  52.3741068  49.8987534
  74.4467257  52.5451068  51.4737534  74.3587257  47.9261068  53.6467534
  74.5037257  46.9501068  52.9717534  74.9157257  48.1041068  54.8077534
  74.6527257  48.9071068  55.3667534  75.8607257  47.1191068  55.4317534
  76.7507257  46.9821068  54.8167534  76.2637257  47.4791068  56.8017534
  75.4657257  47.7111068  57.5077534  76.8267257  46.6431068  57.2157534
  77.1707257  48.5721068  56.6197534  76.5807257  49.2841068  56.3637534
  75.0967257  45.7951068  55.5697534  75.7397257  44.7501068  55.4437534
  73.8027257  45.8521068  55.8167534  73.3467257  46.7241068  55.5787534
  73.0217257  44.5921068  56.0367534  73.4267257  44.0031068  56.8597534
  71.5627257  44.8541068  56.5457534  71.0587257  45.5051068  55.8317534
  71.0397257  43.9211068  56.7577534  71.5177257  45.6061068  57.8967534
  72.0287257  45.0291068  58.6677534  72.0417257  46.5571068  57.7967534
  70.1407257  45.8281068  58.3467534  69.5537257  46.4891068  57.7087534
  69.5947257  44.8851068  58.3287534  70.0287257  46.5191068  59.7577534
  70.6217257  47.4331068  59.7937534  68.9577257  46.7121068  59.8207534
  70.4337257  45.6601068  60.8877534  69.8087257  44.8891068  61.0747534
  70.4217257  46.2811068  61.6837534  71.4197257  45.4391068  60.8687534
  72.9297257  43.7151068  54.7377534  72.5197257  42.6061068  54.7827534
  73.3387257  44.2891068  53.5677534  73.6717257  45.2381068  53.6877534
  73.2147257  43.5271068  52.3117534  72.2037257  43.1221068  52.3177534
  73.5027257  44.4431068  51.0347534  74.4397257  44.9421068  51.2827534
  73.4577257  43.7561068  50.1897534  72.4517257  45.5021068  50.5997534
  72.4227257  46.2861068  51.3557534  72.9407257  46.2171068  49.3707534
  73.7727257  46.8981068  49.5507534  72.1897257  46.7641068  48.7997534
  73.3387257  45.4221068  48.7407534  71.0507257  44.9001068  50.1667534
  70.4247257  44.4971068  50.9637534  70.3377257  45.6271068  49.7787534
  71.2807257  44.1341068  49.4257534  74.0307257  42.2211068  52.2947534
  73.5727257  41.2161068  51.7197534  75.1767257  42.3161068  52.9597534
  75.3587257  43.1531068  53.5007534  76.2187257  41.2471068  53.1727534
  76.5197257  40.8581068  52.1997534  77.4167257  41.8531068  53.9687534
  77.0497257  42.3121068  54.8867534  78.0717257  41.0601068  54.3287534
  78.2197257  42.8001068  53.1037534  79.3627257  42.3251068  52.4507534
  79.7857257  41.3571068  52.6767534  80.0667257  43.2231068  51.6337534
  81.0407257  42.9241068  51.2757534  79.5647257  44.5291068  51.3297534
  80.2317257  45.2301068  50.3567534  81.0267257  44.7571068  50.1027534
  78.4137257  44.9861068  51.9457534  78.0537257  45.9961068  51.8207534
  77.8287257  44.2171068  52.8987534  77.0487257  44.6611068  53.4987534
  75.6777257  40.1231068  54.1107534  76.3527257  39.0891068  54.2257534
  74.5617257  40.3471068  54.8527534  74.0777257  41.2171068  54.6667534
  73.9677257  39.2571068  55.6167534  74.8007257  38.6781068  56.0137534
  72.9697257  39.6581068  56.7697534  72.1157257  40.2211068  56.3957534
  72.4077257  38.7901068  57.1147534  73.4237257  40.2141068  58.0907534
  72.6667257  40.1151068  59.0707534  74.5527257  40.6861068  58.2587534
  73.2127257  38.3111068  54.7007534  73.3897257  37.1321068  54.7757534
  72.3717257  38.8051068  53.8157534  72.1367257  39.7901068  53.8407534
  71.8037257  38.0561068  52.7337534  71.3697257  37.1351068  53.1217534
  70.6857257  38.7611068  52.0107534  70.0377257  39.2811068  52.7167534
  71.1987257  39.5601068  51.4757534  69.9577257  37.9481068  50.9707534
  69.1547257  38.5871068  50.6037534  70.5917257  37.7401068  50.1087534
  69.3217257  36.5851068  51.4597534  68.6747257  36.6041068  52.5337534
  69.4797257  35.5371068  50.7307534  72.8807257  37.6021068  51.7267534
  73.8457257  38.3211068  51.4137534  72.6657257  36.4701068  51.0387534
  71.7867257  35.9721068  51.1057534  73.5737257  35.8361068  50.0627534
  74.5367257  35.6571068  50.5417534  72.9507257  34.5271068  49.5397534
  72.9717257  33.7481068  50.3017534  71.8947257  34.7051068  49.3377534
  73.6097257  33.8931068  48.2647534  72.8417257  33.3621068  47.7027534
  74.0177257  34.6411068  47.5857534  74.6107257  32.8821068  48.6487534
  75.7497257  33.3061068  49.0337534  74.3867257  31.6461068  48.6227534
  73.8117257  36.8151068  48.8877534  72.8557257  37.5371068  48.5117534
  74.9517257  36.8801068  48.2447534  75.6517257  36.2411068  48.6027534
  75.2767257  37.8821068  47.2197534  75.0537257  38.8681068  47.6267534
  76.7337257  37.7111068  46.7067534  76.8147257  36.7331068  46.2317534
  77.2277257  38.8181068  45.7017534  76.9647257  39.7441068  46.2127534
  76.6457257  38.7951068  44.7807534  78.2977257  38.8141068  45.4967534
  77.6097257  37.7931068  47.7927534  77.6147257  37.0871068  48.4437534
  74.3427257  37.9441068  46.0667534  74.1337257  36.9681068  45.4137534
  73.7977257  39.1211068  45.7937534  73.8967257  39.7881068  46.5497534
  72.7777257  39.4001068  44.8307534  72.6927257  40.4871068  44.8137534
  73.0757257  39.0881068  43.8297534  71.3757257  38.8491068  45.1307534
  70.5457257  39.1001068  44.2997534  71.1327257  38.1151068  46.2077534
  71.9507257  37.8631068  46.7487534  69.8157257  37.5941068  46.5227534
  69.3547257  37.5231068  45.5377534  69.9467257  36.2111068  47.2497534
  70.3257257  35.4511068  46.5667534  70.6267257  36.2121068  48.1017534
  68.6067257  35.6241068  47.6997534  68.1877257  36.0301068  48.6197534
  67.9507257  35.7861068  46.8447534  68.6927257  34.0961068  47.9527534
  68.4137257  33.2951068  47.0787534  69.5267257  33.6971068  49.0187534
  69.6017257  34.4621068  49.5937534  68.9377257  38.7201068  47.1777534
  67.7397257  38.6581068  46.9237534  69.5027257  39.6461068  47.9187534
  70.5107257  39.5761068  47.9947534  68.7857257  40.7731068  48.5747534
  67.8827257  40.2981068  48.9587534  69.4757257  41.1461068  49.3317534
  68.5707257  41.9801068  47.6467534  69.4237257  42.2561068  46.7967534
  67.5037257  42.7701068  47.8677534  66.8187257  42.5141068  48.5687534
  67.4087257  44.0331068  47.1447534  68.3737257  44.5301068  47.0457534
  66.8337257  43.8731068  45.7947534  67.3937257  43.0301068  45.3897534
  65.8077257  43.5231068  45.9117534  67.0507257  45.0871068  44.8467534
  65.8587257  45.6411068  44.2417534  64.8827257  45.2091068  44.4047534
  65.9257257  46.8361068  43.4987534  65.0037257  47.3271068  43.2237534
  67.1657257  47.4311068  43.1967534  67.2657257  48.5741068  42.4897534
  66.3807257  48.8481068  42.2387534  68.3377257  46.8281068  43.6727534
  69.2647257  47.3341068  43.4457534  68.2847257  45.6981068  44.5827534
  69.1697257  45.2311068  44.9897534  66.7767257  45.1341068  48.0757534
  65.9087257  44.8261068  48.8977534  67.0967257  46.4271068  47.9547534
  67.5907257  46.7641068  47.1367534  66.4117257  47.4871068  48.7027534
  65.4627257  47.1211068  49.0937534  67.2257257  47.9801068  49.9097534
  68.1707257  48.2561068  49.4427534  66.6597257  49.2601068  50.6087534
  65.6977257  49.1111068  51.0987534  66.4527257  49.9981068  49.8337534
  67.3937257  49.7661068  51.2357534  67.4877257  46.9161068  50.9257534
  66.5537257  46.5341068  51.3367534  67.9607257  46.0091068  50.5487534
  68.2987257  47.3151068  52.1637534  68.6667257  46.3981068  52.6247534
  67.7607257  47.8471068  52.9487534  69.1417257  47.9671068  51.9337534
  66.3557257  48.6221068  47.7017534  67.3177257  48.8301068  46.9887534
  65.2967257  49.3111068  47.6257534  64.5487257  49.1341068  48.2857534
  65.0557257  50.4661068  46.6297534  66.0027257  50.9041068  46.3147534
  64.3217257  49.9371068  45.4037534  64.9547257  49.2331068  44.8637534
  63.5197257  49.3021068  45.7787534  63.7217257  50.8371068  44.3007534
  62.8357257  51.3241068  44.7077534  64.3327257  51.6891068  44.0027534
  63.4137257  49.9321068  43.1257534  64.2757257  49.8631068  42.2117534
  62.2697257  49.4131068  43.0797534  64.2157257  51.5191068  47.2937534
  63.3417257  51.2361068  48.1047534  64.3977257  52.7641068  46.8857534
  64.9577257  53.0161068  46.0797534  63.7647257  54.0251068  47.3567534
  62.7877257  53.7281068  47.7387534  64.3997257  54.7241068  48.6157534
  63.7127257  55.4631068  49.0287534  64.4427257  54.1101068  49.5157534
  65.7717257  55.4331068  48.3937534  66.0277257  56.6621068  48.9637534
  65.2107257  57.1981068  49.4247534  67.2997257  57.2941068  49.0037534
  67.3397257  58.2591068  49.4847534  68.4567257  56.7011068  48.4717534
  69.4657257  57.0781068  48.5477534  68.1837257  55.5241068  47.7037534
  68.9747257  55.0391068  47.1497534  66.8757257  54.8861068  47.6627534
  66.9307257  53.9221068  47.1787534  63.4987257  55.1231068  46.2237534
  64.4127257  55.4291068  45.4437534  62.2757257  55.6591068  46.1157534
  61.6347257  55.6571068  46.8997534  61.8627257  56.4691068  44.9217534
  62.6887257  56.9281068  44.3777534  61.2467257  55.4371068  43.9587534
  60.8387257  55.9431068  43.0837534  62.0577257  54.7331068  43.7747534
  60.1037257  54.5561068  44.4527534  60.3037257  53.4741068  45.3187534
  61.2877257  53.1071068  45.5697534  59.1937257  52.7231068  45.7317534
  59.3197257  51.8591068  46.3657534  57.8557257  53.0891068  45.3757534
  56.9907257  52.5351068  45.7097534  57.6507257  54.1191068  44.4497534
  56.6547257  54.4751068  44.2327534  58.7767257  54.8481068  44.0207534
  58.6647257  55.7031068  43.3697534  60.8727257  57.6021068  45.3467534
  59.9927257  57.3491068  46.1347534  61.0217257  58.8561068  44.8517534
  62.1227257  59.4241068  44.0137534  62.4887257  58.7671068  43.2147534
  62.9667257  59.6631068  44.6737534  61.5257257  60.7461068  43.4237534
  60.8977257  60.3441068  42.6287534  62.3197257  61.4391068  43.1457534
  60.5897257  61.2931068  44.5127534  59.8187257  61.9291068  44.0787534
  61.1627257  61.6541068  45.3667534  60.0477257  59.9201068  45.1497534
  60.0467257  59.9851068  46.2377534  58.6247257  59.6491068  44.5387534
  58.4907257  58.8901068  43.6217534  57.6067257  60.3481068  45.0967534
  57.7987257  61.1061068  45.7417534  56.1697257  59.9881068  45.0327534
  56.0067257  59.3111068  44.1937534  55.7607257  59.2411068  46.2967534
  56.6897257  58.8711068  46.7307534  55.4887257  59.9271068  47.0977534
  54.8797257  57.9551068  46.0637534  53.5177257  58.0061068  46.3147534
  53.0837257  58.9751068  46.5137534  52.7587257  56.8701068  46.3947534
  51.7087257  56.8701068  46.6487534  53.3377257  55.6311068  46.1717534
  52.6167257  54.4731068  46.2067534  53.2087257  53.7161068  46.2207534
  54.6987257  55.5461068  45.8107534  55.2097257  54.6011068  45.7007534
  55.4497257  56.7601068  45.7717534  56.5257257  56.7311068  45.6847534
  55.1927257  61.2011068  44.8917534  54.0537257  60.9611068  44.4017534
  55.6547257  62.4401068  45.0947534  56.6277257  62.5591068  45.3517534
  54.8197257  63.6651068  45.0647534  53.8337257  63.4461068  45.4727534
  55.3037257  64.3231068  45.7857534  54.6227257  64.3111068  43.6767534
  53.8057257  63.7711068  42.9627534  55.1277257  65.5211068  43.4537534
  55.7517257  65.9661068  44.1157534  54.7667257  66.2771068  42.2397534
  55.2967257  67.2291068  42.1987534  54.9897257  65.6611068  41.3697534
  53.2337257  66.5291068  42.2777534  52.7097257  66.9351068  43.3537534
  52.5927257  66.2011068  41.1697534  53.1957257  65.9791068  40.3867534
  51.1087257  66.3021068  40.9487534  50.8907257  67.3691068  40.9717534
  50.7877257  65.6611068  39.6187534  51.4027257  66.2081068  38.9037534
  51.0437257  64.6041068  39.6947534  49.3397257  65.7011068  39.1607534
  49.3057257  65.0601068  38.2807534  48.7197257  65.1471068  39.8667534
  48.7257257  67.0321068  38.8877534  48.8377257  67.5651068  39.8327534
  49.3327257  67.4901068  38.1067534  47.2797257  66.9981068  38.4267534
  47.2497257  66.3991068  37.5167534  46.5897257  66.6001068  39.1707534
  46.7287257  68.3021068  38.0217534  45.8317257  68.1521068  37.5817534
  47.2507257  68.6951068  37.2517534  46.6297257  68.9311068  38.8057534
  50.4167257  65.5491068  42.0877534  49.4277257  66.0361068  42.6047534
  51.0307257  64.4761068  42.5887534  51.9527257  64.2481068  42.2367534
  50.4327257  63.6961068  43.7257534  49.4607257  63.4091068  43.3237534
  51.1607257  62.3921068  44.0277534  51.6707257  62.0461068  43.1287534
  52.0757257  62.7471068  44.5017534  50.6977257  61.1841068  44.8117534
  49.7427257  60.9131068  44.3597534  51.3947257  60.3511068  44.7207534
  50.2897257  61.5231068  46.5377534  51.8577257  62.0821068  47.1957534
  52.7277257  61.4701068  46.9267534  51.9387257  63.1371068  46.9027534
  51.7607257  62.2461068  48.2757534  50.2237257  64.5311068  44.9627534
  49.1177257  64.5261068  45.5627534  51.1277257  65.3961068  45.2677534
  51.9987257  65.4581068  44.7537534  51.0337257  66.2001068  46.5197534
  50.7507257  65.6651068  47.4267534  52.4047257  66.7371068  46.9107534
  52.6477257  67.5471068  46.2227534  52.3097257  67.2211068  47.8837534
  53.5007257  65.7751068  46.9697534  54.3077257  66.2741068  47.1147534
  49.9997257  67.3391068  46.3707534  49.3157257  67.6571068  47.3827534
  49.8537257  67.9781068  45.1977534  50.5237257  67.7271068  44.4797534
  48.9217257  69.1011068  44.9917534  49.1047257  69.9261068  45.6807534
  49.0137257  69.6551068  43.6207534  48.8377257  68.8801068  42.8737534
  48.1317257  70.2731068  43.4597534  50.3507257  70.4211068  43.4567534
  50.2877257  71.2601068  44.1487534  51.2307257  69.8481068  43.7497534
  50.5857257  71.0031068  42.0607534  50.7307257  70.2771068  41.2607534
  49.6597257  71.4981068  41.7677534  51.7047257  72.0961068  42.0587534
  51.3997257  72.7721068  41.2597534  51.4477257  72.6531068  42.9607534
  53.0947257  71.6111068  41.9427534  53.4337257  71.0531068  42.7137534
  53.7297257  72.3971068  41.9287534  53.1947257  71.1281068  41.0617534
  47.4807257  68.6751068  45.1657534  46.6697257  69.4091068  45.6647534
  47.1097257  67.4571068  44.7857534  47.8227257  66.8051068  44.4787534
  45.7267257  66.9271068  44.8097534  45.0997257  67.5441068  44.1647534
  45.7367257  65.5101068  44.1287534  46.5347257  65.0141068  44.6797534
  44.4377257  64.6121068  44.4037534  43.4877257  65.0841068  44.1527534
  44.4047257  64.3611068  45.4647534  44.4967257  63.7291068  43.7687534
  45.9847257  65.5971068  42.6037534  45.0677257  65.9831068  42.1577534
  46.8197257  66.2821068  42.4587534  46.3907257  64.2971068  41.8967534
  47.0377257  64.5161068  41.0467534  45.4307257  63.8611068  41.6207534
  46.8947257  63.6291068  42.5947534  45.2077257  66.8651068  46.1897534
  45.9967257  66.7551068  47.0997534  43.8847257  67.0631068  46.3457534
  43.4207257  67.1691068  45.4517534  43.2497257  67.1251068  47.6797534
  43.6857257  68.0041068  48.1547534  41.7407257  67.5061068  47.5977534
  41.6447257  68.4681068  47.0947534  41.0877257  66.8691068  47.0007534
  41.1477257  67.6121068  48.8757534  40.2037257  67.5921068  48.7017534
  43.4787257  65.9061068  48.5777534  43.3307257  64.7601068  48.1477534
  43.6977257  66.1751068  49.8937534  43.9977257  67.1151068  50.1197534
  43.8187257  65.0901068  50.8837534  44.4817257  64.3161068  50.4997534
  44.4207257  65.7211068  52.1377534  45.1287257  66.4931068  51.8357534
  43.7087257  66.2741068  52.7487534  45.2247257  64.7471068  53.0637534
  44.5047257  64.0431068  53.4787534  45.8627257  64.1741068  52.3917534
  45.9627257  65.3291068  54.2757534  46.5167257  66.4641068  54.1367534
  45.8417257  64.8491068  55.4377534  42.4867257  64.4421068  51.2417534
  42.3667257  63.3621068  51.7617534  41.4077257  65.1521068  50.8547534
  41.5647257  66.0521068  50.4187534  40.0947257  64.4881068  50.9157534
  40.0277257  63.8931068  51.8267534  38.9667257  65.4781068  51.0047534
  38.8197257  65.9551068  50.0357534  38.0797257  64.9631068  51.3747534
  39.3267257  66.5071068  51.9577534  39.1637257  66.2681068  52.8727534
  39.7597257  63.4481068  49.7937534  38.6727257  62.9101068  49.7307534
  40.6067257  63.3531068  48.6927534  41.5017257  63.8241068  48.6267534
  40.1867257  62.6101068  47.4787534  39.2197257  63.0221068  47.1917534
  41.2297257  62.9841068  46.4267534  41.0217257  64.0341068  46.2237534
  42.2407257  62.9041068  46.8237534  41.2247257  62.1591068  45.1017534
  42.0817257  62.4481068  44.4937534  41.2597257  61.0791068  45.2467534
  39.9267257  62.4951068  44.4007534  39.3157257  61.6151068  43.8177534
  39.4787257  63.6481068  44.4297534  39.8887257  61.1201068  47.6407534
  38.8847257  60.6741068  47.1547534  40.7097257  60.5111068  48.4387534
  41.4307257  61.1031068  48.8307534  40.6787257  59.1071068  48.9167534
  39.6247257  58.8331068  48.9657534  41.3627257  58.2691068  47.8707534
  41.3637257  57.2181068  48.1567534  40.6017257  58.1561068  46.5947534
  40.7297257  59.0191068  45.9417534  39.5337257  57.9961068  46.7367534
  41.0067257  57.2531068  46.1377534  42.9227257  58.4741068  47.8667534
  43.2607257  59.4641068  47.5597534  43.3007257  58.2241068  48.8577534
  43.7087257  57.4981068  46.8977534  43.2977257  57.7631068  45.9237534
  43.3787257  56.4911068  47.1537534  44.7747257  57.7251068  46.8947534
  41.2837257  58.9581068  50.3037534  41.9097257  59.8941068  50.8107534
  41.1407257  57.7961068  51.0327534  40.2577257  56.6541068  50.7437534
  40.7027257  56.0011068  49.9827534  39.2237257  56.8751068  50.4527534
  40.0707257  55.7691068  52.0357534  39.9377257  54.7051068  51.8447534
  39.1957257  56.0051068  52.6397534  41.4017257  56.1141068  52.7207534
  42.1407257  55.3831068  52.3917534  41.3287257  56.0101068  53.8037534
  41.7597257  57.5161068  52.3337534  41.3167257  58.1781068  53.0777534
  43.2477257  57.6721068  52.4987534  43.7237257  57.5241068  53.6207534
  44.0207257  57.8611068  51.4657534  43.5597257  57.9881068  50.5727534
  45.4617257  58.0851068  51.5377534  45.9827257  57.1721068  51.8257534
  46.0027257  58.3231068  50.1287534  45.5497257  57.5961068  49.4557534
  45.6867257  59.3291068  49.8527534  47.5347257  58.2051068  50.0477534
  48.1497257  56.9611068  49.8697534  47.5117257  56.0951068  49.9627534
  49.5437257  56.8491068  49.6347534  49.9227257  55.8441068  49.5257534
  50.3237257  57.9841068  49.4677534  51.3887257  57.8431068  49.3487534
  49.7357257  59.1651068  49.8207534  50.3797257  60.0181068  49.9777534
  48.4317257  59.3011068  50.1827534  48.1257257  60.2821068  50.5157534
  45.8637257  59.2871068  52.4157534  45.3747257  60.4021068  52.1217534
  46.8287257  59.1741068  53.3497534  47.1997257  57.9131068  54.0437534
  48.2477257  57.6631068  53.8367534  46.5457257  57.0871068  53.7357534
  47.0437257  58.1941068  55.4967534  47.6107257  57.5711068  56.1897534
  45.9737257  58.1511068  55.6977534  47.4887257  59.6281068  55.6217534
  48.5737257  59.5751068  55.7117534  46.9567257  60.1331068  56.4277534
  47.2117257  60.3151068  54.2527534  46.2617257  60.8121068  54.4497534
  48.4047257  61.1291068  53.7047534  48.4707257  62.3401068  53.7887534
  49.4307257  60.4921068  53.1997534  49.3647257  59.4811068  53.1687534
  50.7477257  61.0531068  52.8507534  51.1447257  61.7281068  53.6087534
  51.8127257  59.9171068  52.8407534  51.7237257  59.3351068  51.9237534
  52.7857257  60.3831068  52.6877534  51.8257257  59.0041068  54.0417534
  52.2527257  59.4451068  55.2757534  52.6957257  60.4041068  55.4997534
  52.1827257  58.5781068  56.3657534  52.5047257  58.8821068  57.3507534
  51.6267257  57.3011068  56.2747534  51.3177257  56.5551068  57.3317534
  50.8717257  55.7331068  57.1157534  51.1947257  56.8131068  55.0277534
  50.7057257  55.8511068  55.0137534  51.3227257  57.7321068  53.9177534
  50.8307257  57.5121068  52.9817534  50.7967257  62.0021068  51.5727534
  51.7357257  61.8961068  50.8277534  49.8137257  62.8241068  51.3577534
  49.1287257  62.9551068  52.0927534  49.7827257  63.7551068  50.2107534
  49.8427257  63.2361068  49.2537534  48.5917257  64.7441068  50.1947534
  48.2577257  65.2361068  51.1077534  48.8257257  65.5401068  49.4877534
  47.2857257  64.2671068  49.6897534  46.8687257  63.3691068  50.1437534
  46.6207257  65.1241068  49.7947534  47.3487257  63.9801068  48.1337534
  47.6387257  64.9111068  47.6457534  48.1687257  63.2771068  47.9857534
  46.0397257  63.3691068  47.6687534  45.1957257  63.7261068  48.0947534
  45.8877257  62.2591068  46.9127534  46.6447257  61.9601068  45.9257534
  47.2737257  62.6211068  45.4937534  46.3447257  61.1161068  45.4597534
  44.7827257  61.5431068  46.9137534  44.0967257  61.8271068  47.5987534
  44.6377257  60.8841068  46.1617534  51.0507257  64.5891068  50.2617534
  51.7927257  64.6611068  49.3177534  51.2917257  65.3371068  51.3237534
  50.7447257  65.0031068  52.1077534  52.3457257  66.3481068  51.3677534
  52.7267257  66.5031068  50.3587534  51.7767257  67.7081068  51.8157534
  51.0347257  68.0971068  51.1187534  52.6847257  68.3101068  51.8567534
  51.2177257  67.5511068  52.7377534  53.6207257  65.8161068  52.1257534
  53.5397257  64.9171068  52.9367534  54.7787257  66.4991068  52.0657534
  54.8427257  67.2201068  51.3577534  55.8187257  66.4031068  53.0697534
  56.3727257  67.3371068  52.9757534  55.3597257  66.3251068  54.0557534
  56.6877257  65.1761068  52.9477534  57.8107257  65.1941068  53.4877534
  56.2757257  64.1871068  52.1287534  55.2837257  64.1841068  51.9237534
  57.1017257  63.0401068  51.9267534  57.4297257  62.7581068  52.9277534
  56.1217257  61.8871068  51.3617534  55.2997257  61.7791068  52.0687534
  55.5387257  62.1781068  50.4877534  56.8017257  60.5941068  51.0557534
  56.8687257  60.1181068  49.9747534  57.4417257  59.9661068  51.9727534
  57.2487257  60.2501068  52.9257534  58.0327257  59.1791068  51.7337534
  58.2677257  63.3071068  51.0257534  58.0887257  63.9411068  50.0207534
  59.4317257  62.7631068  51.2687534  59.5807257  62.2001068  52.0977534
  60.5417257  62.7541068  50.3107534  60.4227257  63.5511068  49.5767534
  61.7837257  62.8971068  51.1547534  61.5777257  63.6651068  51.8997534
  61.9287257  61.9331068  51.6427534  62.9807257  63.2941068  50.2907534
  63.0147257  62.6941068  49.3817534  62.9507257  64.7661068  50.0177534
  63.7147257  65.0031068  49.2777534  62.9417257  65.4511068  50.8657534
  61.9717257  64.9061068  49.5587534  64.3257257  63.2361068  51.0917534
  64.2837257  62.2311068  51.5117534  65.2117257  63.1671068  50.4607534
  64.3917257  64.0031068  51.8637534  60.6067257  61.6181068  49.2997534
  60.7017257  61.8331068  48.1287534  60.4727257  60.3841068  49.8337534
  60.3447257  60.3241068  50.8367534  60.2217257  59.1801068  49.0787534
  59.6217257  59.3201068  48.1797534  61.5967257  58.5351068  48.6107534
  61.3547257  57.5131068  48.3177534  61.9097257  58.9841068  47.6687534
  62.7197257  58.6511068  49.5317534  62.9587257  57.6761068  50.4787534
  62.2757257  56.8431068  50.5547534  63.9367257  57.7731068  51.5377534
  64.0347257  56.9851068  52.2697534  64.7817257  58.8861068  51.4807534
  65.7087257  59.0451068  52.4177534  66.4677257  59.5421068  52.1047534
  64.6797257  59.7931068  50.4217534  65.4017257  60.5961068  50.4327534
  63.6527257  59.7321068  49.4777534  63.5867257  60.4691068  48.6897534
  59.4487257  58.1511068  49.8117534  59.2537257  58.0721068  50.9917534
  59.0177257  57.0911068  49.0757534  59.2147257  57.2791068  48.0997534
  58.7727257  55.7191068  49.5067534  58.3287257  55.8371068  50.4957534
  57.7237257  55.1571068  48.5007534  56.9617257  55.9021068  48.2707534
  58.1947257  54.9991068  47.5297534  57.0187257  53.9141068  48.9467534
  57.3827257  52.7641068  48.7057534  56.0197257  54.0351068  49.7167534
  55.7007257  54.9331068  50.0607534  55.6047257  53.1541068  49.9967534
  60.0147257  54.7901068  49.4927534  60.9767257  55.0681068  48.8777534
  60.0437257  53.6951068  50.2777534  59.2387257  53.3441068  50.7817534
  61.1777257  52.8521068  50.4107534  61.8597257  52.9181068  49.5627534
  61.8887257  53.2841068  51.7607534  62.4387257  54.2151068  51.6227534
  61.1727257  53.5061068  52.5517534  62.8607257  52.2991068  52.4767534
  62.3677257  51.3301068  52.5597534  64.1917257  52.1691068  51.7947534
  64.7787257  53.0871068  51.8347534  63.9667257  51.8371068  50.7817534
  64.6847257  51.3181068  52.2657534  63.1587257  52.8691068  53.8327534
  63.8747257  52.1501068  54.2307534  63.6457257  53.8351068  53.9687534
  62.3767257  52.7481068  54.5827534  60.6697257  51.3741068  50.6197534
  59.5227257  51.1431068  50.9587534  61.4837257  50.4341068  50.1567534
  62.4327257  50.7571068  50.0087534  61.2147257  49.0111068  50.1507534
  60.6117257  48.8671068  51.0467534  60.3307257  48.6511068  48.9267534
  60.1767257  47.5721068  48.9227534  59.3807257  49.1661068  49.0747534
  60.8127257  49.0001068  47.5127534  60.9237257  50.0811068  47.4297534
  61.6807257  48.3581068  47.3637534  59.6867257  48.5431068  46.5937534
  59.4427257  47.4921068  46.7517534  58.8197257  49.0901068  46.9647534
  59.9597257  48.8951068  45.1897534  60.8327257  49.3841068  45.0547534
  59.2927257  48.2811068  44.2157534  58.1777257  47.5881068  44.3747534
  57.7157257  47.4391068  45.2607534  57.8757257  47.0311068  43.5887534
  59.7257257  48.3201068  43.0007534  60.5997257  48.8111068  42.8727534
  59.3587257  47.7461068  42.2557534  62.4637257  48.0881068  50.2197534
  63.5467257  48.3781068  49.7737534  62.2197257  46.9231068  50.8397534
  61.2727257  46.8481068  51.1897534  63.0647257  45.8321068  51.1717534
  64.0507257  46.0091068  50.7417534  63.3067257  45.7171068  52.6217534
  62.5297257  45.0551068  53.0027534  64.2887257  45.2701068  52.7807534
  63.1457257  46.9961068  53.4877534  61.9037257  47.6191068  53.7677534
  61.0357257  47.2651068  53.2307534  61.7857257  48.6311068  54.7557534
  60.8557257  49.1561068  54.9157534  62.8947257  49.2251068  55.3127534
  62.6997257  50.3081068  56.1407534  61.7907257  50.6071068  56.2197534
  64.2147257  48.7531068  55.0317534  65.1387257  49.2051068  55.3637534
  64.2757257  47.6221068  54.0757534  65.2397257  47.1831068  53.8647534
  62.4157257  44.5601068  50.5697534  61.2037257  44.4161068  50.6037534
  63.2697257  43.6881068  49.9337534  64.2327257  43.9991068  49.8897534
  62.8097257  42.6231068  49.0067534  61.9357257  42.2281068  49.5247534
  62.4017257  43.1971068  47.6067534  63.2297257  43.7691068  47.1887534
  62.3507257  42.3251068  46.9537534  61.0967257  43.9471068  47.5947534
  60.3667257  43.3651068  48.1567534  61.2377257  44.9231068  48.0587534
  60.5767257  44.2351068  45.9047534  61.9897257  45.1911068  45.1437534
  61.9037257  45.2011068  44.0507534  61.9977257  46.2181068  45.5297534
  62.9857257  44.8371068  45.4367534  63.8097257  41.5591068  48.9037534
  65.0497257  41.7471068  48.6977534  63.4297257  40.2861068  49.0027534
  62.4407257  40.1501068  49.1757534  64.2757257  39.1171068  48.9007534
  65.0827257  39.3061068  48.1937534  64.9057257  38.7901068  50.2257534
  65.1827257  39.7461068  50.6707534  63.9897257  38.0901068  51.2717534
  63.1327257  38.7271068  51.4947534  63.6127257  37.1361068  50.9037534
  64.6317257  38.0641068  52.1517534  66.1697257  37.8911068  50.0277534
  66.6777257  37.9011068  50.9917534  66.8787257  38.4931068  49.4597534
  65.8737257  36.9511068  49.5607534  63.4427257  37.8991068  48.3577534
  62.2687257  37.8631068  48.6657534  63.9957257  36.9301068  47.6827534
  65.0027257  36.8961068  47.5807534  63.3587257  35.7351068  47.1517534
  62.4857257  35.4681068  47.7467534  62.9437257  35.9311068  45.6977534
  62.1227257  35.2561068  45.4587534  62.5207257  36.9191068  45.5167534
  64.0357257  35.8281068  44.8457534  64.6067257  36.5761068  45.0377534
  64.2267257  34.4451068  47.2517534  65.4417257  34.5831068  47.2007534
  63.5747257  33.2821068  47.4227534  62.5627257  33.3091068  47.4617534
  64.2157257  32.0891068  47.8147534  65.2557257  32.1881068  47.5017534
  64.1827257  31.9291068  49.3127534  64.7787257  31.0521068  49.5677534
  64.7457257  32.7721068  49.7117534  62.8877257  31.7721068  50.0537534
  62.1967257  30.6101068  50.3057534  62.4507257  29.6001068  50.0187534
  61.0087257  30.9501068  51.0307534  60.3877257  30.2651068  51.4377534
  60.8427257  32.2851068  51.2497534  59.8677257  33.1231068  51.8787534
  58.9537257  32.6911068  52.2597534  60.0117257  34.4741068  51.9607534
  59.3357257  34.8531068  52.7127534  61.1497257  35.0871068  51.3297534
  61.2467257  36.1621068  51.3087534  62.0207257  34.2571068  50.6927534
  62.9067257  34.6341068  50.2037534  62.0237257  32.8601068  50.6237534
  63.5917257  30.8201068  47.1337534  62.4727257  30.8131068  46.6907534
  64.3017257  29.6841068  47.3047534  65.2037257  29.8281068  47.7437534
  63.9617257  28.4221068  46.6657534  63.9997257  28.5421068  45.5837534
  64.8857257  27.2681068  47.1387534  65.9247257  27.5981068  47.1597534
  64.6147257  27.0111068  48.1627534  64.7227257  25.9781068  46.4437534
  65.2187257  25.1101068  46.8777534  63.6657257  25.7171068  46.4967534
  65.2547257  26.0451068  44.9537534  64.4027257  26.3021068  44.3247534
  66.1387257  26.6631068  44.7947534  65.4857257  24.5641068  44.5427534
  66.0537257  24.6441068  43.6157534  66.0547257  23.8581068  45.1477534
  64.2817257  23.9171068  44.2717534  63.6197257  24.5741068  43.8837534
  63.9907257  23.5761068  45.1767534  64.4387257  23.1171068  43.6747534
  62.5087257  27.9981068  46.9557534  62.0567257  28.0321068  48.1067534
  61.7317257  27.7131068  45.8687534  62.0867257  27.8531068  44.9307534
  60.3907257  27.1421068  45.8147534  59.6667257  27.9271068  46.0347534
  60.0267257  26.8191068  44.3457534  58.9617257  26.6171068  44.2347534
  60.2727257  27.7081068  43.7637534  60.9287257  25.7001068  43.7747534
  62.0977257  25.6161068  44.1417534  60.4197257  24.8041068  43.0107534
  60.1807257  25.8961068  46.7437534  59.1897257  25.8471068  47.4767534
  61.1137257  24.9371068  46.8877534  61.8357257  24.8321068  46.1847534
  60.9567257  23.8741068  47.8697534  59.9367257  23.8771068  48.2537534
  61.1207257  22.5231068  47.2607534  60.8147257  21.8941068  48.0967534
  60.2837257  22.3471068  46.5837534  62.4877257  22.1221068  46.6167534
  62.6117257  21.0321068  46.0157534  63.4997257  22.8371068  46.7807534
  61.8977257  23.9691068  49.0657534  62.2067257  23.0181068  49.7677534
  62.5697257  25.1301068  49.2947534  62.2827257  25.9171068  48.7257534
  63.5457257  25.2031068  50.4117534  64.2677257  24.4771068  50.0367534
  63.9447257  26.2141068  50.4827534  62.8947257  24.7851068  51.7767534
  61.6867257  24.9541068  51.9877534  63.7337257  24.0711068  52.5687534
  64.6807257  23.8721068  52.2707534  63.5497257  23.8571068  53.9957534
  62.7047257  23.2001068  54.1967534  64.9357257  23.2141068  54.4017534
  65.1857257  22.2891068  53.8817534  65.8267257  23.8121068  54.2087534
  65.0067257  22.8751068  55.8927534  64.9287257  23.6791068  56.7857534
  65.1047257  21.6361068  56.2127534  65.2487257  20.9261068  55.5047534
  65.1617257  21.4481068  57.2067534  63.2587257  25.2121068  54.7107534
  64.0897257  26.0571068  54.6627534  62.0607257  25.4011068  55.3787534
  61.5057257  24.5541068  55.3557534  61.6367257  26.6601068  56.0597534
  61.4377257  27.4831068  55.3737534  60.2967257  26.3461068  56.7707534
  60.2257257  25.3011068  57.0727534  60.0927257  27.2511068  58.0677534
  60.7477257  26.7641068  58.7907534  59.0397257  27.1981068  58.3447534
  60.3017257  28.3191068  58.0057534  59.1617257  26.6241068  55.7037534
  59.1347257  27.6811068  55.4407534  59.4237257  26.0341068  54.8257534
  57.7657257  26.1771068  56.1247534  57.2637257  26.8371068  56.8327534
  57.8517257  25.1991068  56.5987534  57.1017257  26.0141068  55.2747534
  62.7127257  27.1571068  57.0837534  62.9087257  28.3551068  57.2817534
  63.4407257  26.1951068  57.7307534  63.0747257  25.2601068  57.5997534
  64.3237257  26.4701068  58.8617534  64.0057257  27.3591068  59.4067534
  64.4407257  25.2031068  59.7967534  64.8937257  24.4291068  59.1767534
  65.2967257  25.5111068  60.9847534  64.8007257  26.2981068  61.5527534
  66.3257257  25.7451068  60.7117534  65.3137257  24.5621068  61.5217534
  63.1547257  24.8891068  60.3627534  63.3917257  24.0141068  60.6787534
  65.6797257  27.0011068  58.3487534  66.3117257  27.7591068  59.0547534
  66.0817257  26.5611068  57.2057534  65.3937257  25.9131068  56.8397534
  67.2497257  27.1411068  56.3997534  68.0967257  27.1821068  57.0847534
  67.7957257  26.2231068  55.2117534  68.2227257  25.3851068  55.7617534
  66.9967257  25.7821068  54.6167534  68.7957257  26.8071068  54.2517534
  68.3937257  27.5401068  53.5527534  69.5457257  27.3091068  54.8617534
  69.6127257  25.8481068  53.4367534  70.1507257  25.2481068  54.1707534
  68.8917257  25.1921068  52.9487534  70.5267257  26.3881068  52.4157534
  70.6747257  27.3861068  52.3677534  70.7297257  25.8171068  51.2657534
  70.5087257  24.5461068  51.0727534  70.4937257  23.9771068  51.9077534
  70.9047257  24.1691068  50.2247534  71.2437257  26.4521068  50.2567534
  71.4237257  27.4441068  50.3067534  71.3247257  25.9481068  49.3847534
  66.7827257  28.5501068  55.8827534  67.5067257  29.5251068  56.0917534
  65.6097257  28.6581068  55.2097534  64.9467257  27.8921068  55.2327534
  65.3127257  29.8301068  54.4107534  66.1737257  30.2201068  53.8677534
  64.3347257  29.5981068  53.2757534  64.2257257  30.5361068  52.7317534
  64.6527257  28.4821068  52.3487534  65.6847257  28.5101068  51.9997534
  63.9717257  28.3781068  51.5037534  64.6157257  27.5341068  52.8847534
  63.0987257  29.3111068  53.8377534  62.5467257  28.8841068  53.1787534
  64.8037257  30.9251068  55.3387534  64.8597257  32.0761068  54.9417534
  64.4767257  30.6261068  56.5767534  64.1657257  29.6711068  56.7147534
  64.1507257  31.5341068  57.6397534  63.1767257  31.8921068  57.3057534
  63.7947257  30.7781068  58.9407534  63.0757257  29.9741068  58.7847534
  64.7087257  30.3401068  59.3407534  63.2557257  31.7241068  60.0287534
  62.0817257  31.8091068  60.2077534  64.1047257  32.3281068  60.8217534
  65.0987257  32.1311068  60.8257534  63.6577257  32.7861068  61.6067534
  65.0987257  32.7041068  57.7827534  64.6837257  33.8441068  57.9747534
  66.3827257  32.5081068  57.4457534  66.6907257  31.5521068  57.3147534
  67.4377257  33.5281068  57.2567534  67.7627257  33.9011068  58.2277534
  68.6677257  32.7971068  56.6207534  69.4787257  33.5241068  56.6707534
  68.9507257  31.9141068  57.1917534  68.4167257  32.2801068  55.1447534
  67.4937257  31.7041068  55.1967534  68.3907257  33.1251068  54.4567534
  69.7857257  31.1561068  54.6817534  71.2347257  32.2091068  54.3907534
  71.1637257  32.8091068  53.4747534  71.2057257  33.0141068  55.1357534
  72.1357257  31.5841068  54.3717534  67.0087257  34.7431068  56.3337534
  67.4597257  35.8611068  56.5547534  66.2087257  34.5371068  55.3047534
  65.8787257  33.5921068  55.1447534  65.8347257  35.6371068  54.4107534
  66.7847257  36.1531068  54.2697534  65.3917257  35.0831068  53.0657534
  64.3137257  34.9241068  53.0847534  65.6337257  35.8741068  52.3547534
  66.1757257  33.9201068  52.5067534  67.4887257  33.9931068  52.0847534
  68.0347257  34.8421068  52.1157534  67.8767257  32.8281068  51.6517534
  68.8787257  32.5931068  51.3267534  66.8927257  31.9541068  51.8247534
  65.8197257  32.6481068  52.3747534  64.7897257  32.3321068  52.4407534
  64.7107257  36.5261068  54.9917534  64.6727257  37.7441068  54.8507534
  63.7637257  35.9021068  55.6507534  63.7917257  34.8901068  55.6297534
  62.6897257  36.6091068  56.4027534  62.2657257  37.3051068  55.6787534
  61.5637257  35.5881068  56.7637534  61.8267257  34.9061068  57.5717534
  60.7547257  36.1911068  57.1767534  60.9027257  34.8511068  55.5807534
  60.7537257  35.5681068  54.7737534  61.6197257  33.7231068  54.9567534
  62.3197257  34.2161068  54.2827534  60.9947257  33.0161068  54.4117534
  62.2147257  33.1431068  55.6627534  59.5317257  34.2741068  56.0377534
  59.6257257  33.7211068  56.9717534  58.7487257  35.0231068  56.1577534
  59.1167257  33.5071068  55.3837534  63.2967257  37.2751068  57.5907534
  63.0627257  38.4821068  57.6987534  64.1447257  36.5761068  58.2867534
  64.3147257  35.5901068  58.1257534  64.9347257  37.1691068  59.3327534
  64.2297257  37.5081068  60.0917534  65.9457257  36.2141068  59.9267534
  65.4867257  35.2561068  60.1707534  66.7567257  36.0631068  59.2147534
  66.5727257  36.7361068  61.0657534  67.1757257  37.4181068  60.7617534
  65.7117257  38.4481068  58.9197534  65.5707257  39.4421068  59.5757534
  66.3037257  38.3371068  57.7057534  66.3677257  37.4371068  57.2457534
  66.9417257  39.5541068  57.1377534  67.6217257  39.9171068  57.9077534
  67.7307257  39.0941068  55.8577534  68.5347257  38.3921068  56.0767534
  67.0567257  38.5471068  55.1977534  68.3547257  40.2651068  55.2007534
  69.5467257  40.7841068  55.5457534  70.1997257  40.2681068  56.2337534
  69.8197257  41.8311068  54.7447534  70.6857257  42.3351068  54.8687534
  68.8327257  42.0971068  53.8247534  68.7297257  43.0661068  52.7827534
  69.3297257  43.9551068  52.6507534  67.5667257  43.0831068  51.9907534
  67.5437257  43.5881068  51.0357534  66.5977257  42.0371068  52.1417534
  65.8617257  41.9261068  51.3587534  66.6967257  41.0941068  53.1787534
  66.0107257  40.2611068  53.2227534  67.8117257  41.0831068  54.1097534
  66.0067257  40.7291068  56.8667534  66.3097257  41.8491068  57.3077534
  64.8437257  40.4921068  56.2917534  64.6737257  39.5091068  56.1167534
  63.7937257  41.5131068  55.9507534  64.2367257  42.3041068  55.3467534
  62.6637257  40.8581068  55.1497534  62.4057257  39.8501068  55.4717534
  61.2637257  41.4541068  55.2957534  60.5517257  40.8971068  54.6857534
  61.2777257  42.4531068  54.8607534  61.0197257  41.4961068  56.3577534
  62.9997257  40.7161068  53.6347534  64.0077257  40.3011068  53.6277534
  62.2507257  40.1251068  53.1077534  63.1147257  41.9551068  52.7437534
  63.7217257  42.7521068  53.1717534  62.1297257  42.3511068  52.4947534
  63.5427257  41.5191068  51.8407534  63.3047257  42.2151068  57.1967534
  62.8957257  43.3601068  57.1727534  63.3147257  41.4671068  58.3227534
  63.7497257  40.5521068  58.3537534  62.8747257  41.9011068  59.6157534
  61.9827257  42.5231068  59.5557534  62.3567257  40.6661068  60.4907534
  61.8587257  40.0021068  59.7847534  63.1807257  40.0081068  60.7667534
  61.5737257  41.1471068  61.6487534  62.1367257  41.8281068  62.2867534
  60.7207257  41.6481068  61.1897534  61.0377257  39.9901068  62.4557534
  60.4357257  39.3581068  61.8037534  61.8507257  39.4901068  62.9827534
  60.0817257  40.5051068  63.5507534  59.3557257  41.1531068  63.0617534
  59.6137257  39.6811068  64.0887534  60.8177257  41.2081068  64.6097534
  61.6177257  40.7041068  64.9647534  60.1587257  41.3731068  65.3577534
  61.1777257  42.1351068  64.4317534  63.9027257  42.6771068  60.3467534
  63.5967257  43.5921068  61.0787534  65.1677257  42.2971068  60.1627534
  65.4107257  41.5151068  59.5657534  66.3167257  43.0591068  60.6567534
  66.0537257  43.2701068  61.6937534  67.5417257  42.1451068  60.5587534
  67.3547257  41.2771068  61.1907534  67.5237257  41.7401068  59.5467534
  68.9807257  42.6251068  60.9377534  68.9997257  43.2971068  62.0347534
  69.9577257  42.4551068  60.1777534  66.4747257  44.4421068  59.9617534
  66.6877257  45.4621068  60.6367534  66.2807257  44.5061068  58.6167534
  66.1417257  43.6361068  58.1167534  66.3687257  45.8121068  57.8827534
  67.3477257  46.2571068  58.0617534  66.4017257  45.4841068  56.3557534
  66.4757257  46.4391068  55.8357534  65.5227257  44.9111068  56.0607534
  67.2967257  44.8991068  56.1477534  65.2257257  46.7581068  58.2387534
  65.4647257  47.8761068  58.5077534  64.0297257  46.1991068  58.3557534
  63.9507257  45.2441068  58.0287534  62.7827257  46.9381068  58.5647534
  62.7037257  47.8201068  57.9297534  61.6387257  45.9621068  58.2267534
  61.8027257  45.7661068  57.1677534  61.6617257  45.0421068  58.8107534
  60.2567257  46.5521068  58.3717534  59.4767257  46.9161068  57.2717534
  59.8727257  46.7551068  56.2797534  58.2197257  47.5401068  57.4467534
  57.6087257  47.9151068  56.6397534  57.7347257  47.6841068  58.7927534
  56.5007257  48.2211068  59.0237534  56.2427257  48.7881068  58.2927534
  58.4947257  47.1511068  59.9167534  58.0737257  47.0041068  60.9007534
  59.7627257  46.5781068  59.6897534  60.2297257  46.0561068  60.5107534
  62.6387257  47.3701068  59.9947534  62.2937257  48.5031068  60.1447534
  62.8177257  46.5001068  61.0557534  63.0767257  45.5501068  60.8177534
  63.0157257  46.9381068  62.4397534  62.0627257  47.4171068  62.6617534
  63.2787257  45.7391068  63.4687534  64.1837257  45.1831068  63.2237534
  63.4767257  46.1261068  64.4687534  62.1577257  44.7451068  63.5437534
  62.1977257  43.7381068  64.3457534  61.1267257  44.9321068  62.9017534
  64.1387257  47.9651068  62.6197534  64.1177257  48.7521068  63.5637534
  65.2597257  47.9401068  61.8227534  65.3177257  47.2721068  61.0637534
  66.3047257  49.0131068  62.0737534  66.5647257  48.9901068  63.1317534
  67.6007257  48.8421068  61.2267534  68.1277257  47.9541068  61.5747534
  67.3517257  48.5831068  60.1977534  68.6237257  49.9641068  61.2247534
  69.1597257  50.3021068  62.4537534  68.8177257  49.8131068  63.3547534
  70.0807257  51.3511068  62.5167534  70.5467257  51.5951068  63.4597534
  70.4187257  52.1271068  61.4037534  71.3517257  53.1151068  61.5677534
  71.4687257  53.2791068  62.5057534  69.9277257  51.7231068  60.1217534
  70.2687257  52.2991068  59.2737534  69.0237257  50.6591068  60.0357534
  68.6117257  50.3101068  59.1007534  65.7887257  50.4681068  61.8347534
  66.0847257  51.3911068  62.5227534  65.0577257  50.5451068  60.7377534
  64.9947257  49.6501068  60.2687534  64.4857257  51.7371068  60.0757534
  65.2877257  52.4631068  60.2117534  64.2057257  51.5991068  58.5917534
  63.4567257  50.8231068  58.4327534  63.7607257  52.4951068  58.1587534
  65.5037257  51.2791068  57.7717534  65.9867257  50.3901068  58.1767534
  65.2097257  51.0431068  56.7487534  66.8197257  52.5941068  57.6847534
  65.9297257  53.9511068  56.8997534  66.7347257  54.5861068  56.5097534
  65.2847257  53.4981068  56.1367534  65.1827257  54.4721068  57.5117534
  63.3557257  52.4281068  60.8947534  63.1137257  53.5761068  60.6497534
  62.7877257  51.7521068  61.8237534  63.2417257  50.8641068  62.0017534
  61.7887257  52.1971068  62.7747534  60.8727257  52.1171068  62.1897534
  61.4327257  51.1981068  63.8757534  62.1977257  51.2921068  64.6477534
  60.0967257  51.4601068  64.5557534  59.3367257  51.4431068  63.7747534
  60.2057257  52.4631068  64.9667534  59.9867257  50.7371068  65.3647534
  61.5177257  49.8091068  63.5247534  61.6897257  49.3071068  64.3247534
  61.8107257  53.6561068  63.2517534  60.7587257  54.2711068  63.3217534
  63.0377257  54.1531068  63.5407534  64.2577257  53.4621068  63.9207534
  65.0417257  53.4871068  63.1537534  63.9717257  52.4421068  64.2037534
  64.6837257  54.1831068  65.1757534  65.7577257  54.0191068  65.2627534
  64.0817257  53.8621068  66.0247534  64.4657257  55.5791068  64.8197534
  65.3427257  55.7641068  64.2007534  64.3447257  56.2601068  65.6627534
  63.0637257  55.5241068  64.0687534  62.2797257  55.5951068  64.8217534
  63.0627257  56.6341068  63.0387534  62.6837257  57.7541068  63.3487534
  63.4717257  56.3581068  61.7557534  63.5167257  55.3991068  61.4307534
  63.9737257  57.3631068  60.8027534  64.1337257  58.3381068  61.2627534
  65.3237257  56.8341068  60.1747534  65.0767257  56.1301068  59.3797534
  65.6887257  57.6571068  59.5607534  66.3057257  56.2701068  61.1647534
  66.8887257  57.1051068  62.1047534  66.5977257  58.1341068  62.2557534
  67.6957257  56.5951068  63.1017534  68.0277257  57.2061068  63.9277534
  68.0237257  55.1841068  63.1077534  68.8787257  54.7251068  64.0417534
  69.6407257  55.3011068  64.1407534  67.5117257  54.3651068  62.0487534
  67.8957257  53.3601068  61.9537534  66.6767257  54.9251068  61.0767534
  66.2697257  54.3431068  60.2637534  62.9067257  57.5631068  59.7017534
  62.7437257  58.7011068  59.2657534  62.1987257  56.4951068  59.3877534
  62.5207257  55.5981068  59.7297534  60.9627257  56.4951068  58.5237534
  61.0177257  57.0641068  57.5957534  60.5507257  55.0951068  58.0417534
  59.7417257  55.2531068  57.3297534  61.7177257  54.4191068  57.2817534
  61.6097257  54.6111068  56.2137534  62.6687257  54.9321068  57.4197534
  61.7427257  53.3461068  57.4717534  59.9497257  54.1811068  59.1717534
  59.5137257  53.2611068  58.7837534  59.0987257  54.6541068  59.6627534
  60.7467257  54.0061068  59.8947534  59.8317257  57.2511068  59.1577534
  59.9687257  57.6851068  60.2997534  58.7087257  57.4311068  58.4247534
  58.5897257  57.0911068  57.4787534  57.4807257  58.0211068  58.9727534
  57.7277257  59.0681068  59.1487534  56.3587257  58.0111068  57.9027534
  56.6267257  58.5291068  56.9827534  56.0837257  56.9651068  57.7707534
  55.1617257  58.7021068  58.4387534  54.5027257  58.0481068  58.6827534
  57.0737257  57.2581068  60.2807534  57.2187257  56.0631068  60.3277534
  56.6067257  58.0301068  61.2577534  56.2907257  58.9551068  60.9937534
  56.4957257  57.5571068  62.6817534  56.2507257  56.5231068  62.4397534
  57.7987257  57.6611068  63.5687534  58.5847257  57.3981068  62.8617534
  57.9047257  58.6751068  63.9557534  58.0177257  56.8061068  64.8317534
  57.2987257  57.1771068  65.5617534  57.8137257  55.7761068  64.5387534
  59.4527257  57.0011068  65.3227534  60.1157257  56.9801068  64.4577534
  59.5757257  58.0101068  65.7157534  59.7997257  55.9621068  66.3457534
  59.4907257  54.9451068  66.1017534  60.8857257  55.9631068  66.4387534
  59.1917257  56.1901068  67.5917534  59.7857257  55.7241068  68.2637534
  58.2707257  55.7911068  67.7057534  59.1577257  57.1761068  67.8067534
  55.2057257  58.1111068  63.3307534  54.8357257  59.2451068  63.2017534
  54.7347257  57.2831068  64.2927534  55.2527257  56.4251068  64.4397534
  53.5267257  57.5361068  65.1227534  53.1377257  56.6021068  65.5267534
  53.9757257  58.4551068  66.2067534  54.3527257  59.3531068  65.7167534
  53.0917257  58.5191068  66.8407534  55.1697257  58.0251068  67.0767534
  55.1637257  56.8521068  67.5067534  56.0437257  58.8761068  67.4057534
  52.3547257  58.0911068  64.2447534  52.0507257  59.2241068  64.3287534
  51.7087257  57.2131068  63.4177534  50.4827257  57.4851068  62.7407534
  50.7037257  58.2281068  61.9647534  49.7007257  57.6591068  63.4907534
  50.0357257  56.2131068  61.9867534  50.4057257  56.2041068  60.9617534
  48.9677257  55.9941068  61.9707534  50.6847257  55.1561068  62.6877534
  50.7827257  54.2981068  62.0227534  50.1697257  54.8561068  63.6007534
  52.0537257  55.7771068  63.2287534  52.3487257  55.2961068  64.1607534
  53.1727257  55.6101068  62.1867534  53.5767257  56.5411068  61.5177534
  53.7477257  54.4001068  62.0077534  53.4627257  53.6281068  62.5997534
  54.5717257  54.1371068  60.8457534  55.3287257  54.8981068  60.6547534
  55.2757257  52.7941068  61.1157534  55.7497257  52.7831068  62.0967534
  54.5687257  51.9761068  60.9717534  56.3937257  52.5091068  60.1387534
  55.9117257  52.3031068  59.1827534  57.0717257  53.3511068  60.0057534
  57.2497257  51.2681068  60.6317534  57.6067257  51.6441068  61.5897534
  56.5747257  50.4261068  60.7907534  58.3987257  51.1091068  59.7407534
  58.2367257  51.3671068  58.7777534  59.4987257  50.4691068  60.0227534
  59.7157257  49.8141068  61.1357534  59.0007257  49.9131068  61.8417534
  60.4877257  49.1681068  61.2177534  60.4387257  50.4161068  59.1087534
  60.1427257  50.7001068  58.1857534  61.2717257  49.8451068  59.1327534
  53.8117257  54.1451068  59.5117534  52.5957257  53.9741068  59.5317534
  54.4487257  54.4101068  58.3427534  55.4297257  54.6361068  58.2347534
  53.7617257  54.4731068  57.0157534  52.6797257  54.5761068  57.0987534
  54.1257257  55.3641068  56.5047534  53.9697257  53.4101068  56.0197534
  55.0497257  52.9731068  55.6967534  52.8647257  52.8701068  55.5127534
  51.9907257  53.3471068  55.7037534  52.6727257  52.0961068  54.2797534
  53.3817257  52.4561068  53.5337534  53.0077257  50.6041068  54.6127534
  53.9907257  50.5141068  55.0747534  52.9767257  49.9241068  53.7607534
  52.2867257  50.2031068  55.3247534  51.2847257  52.3841068  53.5857534
  50.5827257  53.2581068  54.0507534  50.8557257  51.6311068  52.5597534
  51.4037257  50.8651068  52.1857534  49.5317257  51.6771068  51.9957534
  48.8547257  51.7671068  52.8457534  49.3317257  52.9171068  51.1717534
  49.8627257  53.7691068  51.5947534  49.6837257  52.7651068  50.1507534
  47.8567257  53.3541068  51.1527534  47.2927257  53.8831068  52.2997534
  47.8217257  53.9631068  53.2377534  45.9927257  54.4371068  52.2677534
  45.5827257  54.8421068  53.1807534  45.2457257  54.3621068  51.0517534
  43.9167257  54.6091068  51.0557534  43.4607257  53.7711068  51.1547534
  45.8427257  53.8931068  49.8777534  45.3457257  54.0061068  48.9257534
  47.1617257  53.4061068  49.9377534  47.6797257  53.1811068  49.0167534
  49.1587257  50.3191068  51.4327534  49.9567257  49.3611068  51.4247534
  47.9007257  50.2291068  51.1637534  47.3447257  51.0411068  51.4017534
  47.0997257  49.0101068  50.7937534  47.3007257  48.1311068  51.4067534
  45.5747257  49.3331068  50.8907534  45.3277257  49.9391068  51.7617534
  45.2457257  49.9021068  50.0207534  44.6797257  48.0821068  51.0667534
  44.8457257  47.4371068  50.2037534  44.8987257  47.1141068  52.2167534
  44.4497257  46.1221068  52.1647534  44.6487257  47.5541068  53.1817534
  45.9797257  46.9761068  52.2637534  43.1487257  48.3491068  51.0587534
  42.8207257  48.9761068  51.8877534  42.8437257  48.8131068  50.1197534
  42.5077257  47.4691068  51.1147534  47.5257257  48.5831068  49.3057534
  47.4657257  47.4021068  48.9907534  48.0277257  49.4771068  48.4787534
  48.1487257  50.4651068  48.6647534  48.6167257  49.1151068  47.1887534
  47.8397257  48.5471068  46.6767534  49.0417257  50.4081068  46.4297534
  49.4287257  50.1911068  45.4337534  48.0947257  50.8691068  46.1507534
  49.8727257  51.4641068  47.1317534  50.7597257  51.2911068  47.8877534
  49.6557257  52.7141068  46.7557534  48.8747257  52.9231068  46.1457534
  50.4577257  53.3241068  46.8587534  49.7237257  48.0281068  47.2947534
  49.6567257  47.1701068  46.4127534  50.6177257  48.0621068  48.2877534
  50.5487257  48.8841068  48.8747534  51.6277257  47.0141068  48.5537534
  51.3057257  46.0781068  48.0967534  53.0057257  47.4391068  48.1187534
  53.1957257  48.4161068  48.5627534  53.7137257  46.6781068  48.4447534
  53.3347257  47.6531068  46.6257534  53.3177257  48.9611068  46.0757534
  52.8407257  49.7771068  46.5977534  53.9447257  49.1991068  44.8417534
  54.0107257  50.1911068  44.4207534  54.3037257  48.1181068  43.9927534
  54.5737257  48.3041068  42.9637534  54.1367257  46.8471068  44.4297534
  54.3827257  45.9811068  43.8337534  53.7037257  46.5991068  45.7317534
  53.6927257  45.5871068  46.1067534  51.5217257  46.7801068  50.1007534
  52.4217257  47.0191068  50.8637534  50.3457257  46.2711068  50.4657534
  49.5787257  46.3221068  49.8067534  49.9307257  45.7941068  51.7737534
  49.7217257  46.5751068  52.5047534  48.5767257  45.1111068  51.4477534
  48.1267257  44.7151068  52.3577534  47.9627257  45.9651068  51.1627534
  48.6597257  43.9201068  50.4177534  49.3137257  44.0781068  49.5597534
  49.0937257  43.0581068  50.9237534  47.2607257  43.5411068  49.8867534
  47.3687257  42.6991068  49.2027534  46.6237257  43.4161068  50.7617534
  46.9197257  44.6841068  49.0637534  47.1167257  45.6401068  49.3237534
  46.4897257  44.5941068  47.8077534  46.3687257  43.5931068  47.0197534
  46.2827257  42.6611068  47.3967534  46.4637257  43.7671068  46.0287534
  46.3557257  45.6851068  47.1217534  46.6587257  46.5951068  47.4407534
  46.1897257  45.5991068  46.1287534  50.9617257  44.7581068  52.3727534
  51.6677257  44.1621068  51.6387534  50.7957257  44.5631068  53.6527534
  50.0767257  45.1281068  54.0897534  51.7297257  43.7081068  54.4327534
  51.9987257  42.7811068  53.9267534  53.0187257  44.5591068  54.8337534
  53.6057257  44.8051068  53.9497534  52.5617257  45.5071068  55.1197534
  53.9287257  43.9561068  55.8987534  54.0217257  42.6721068  55.9057534
  54.5207257  44.7301068  56.6417534  51.2297257  43.2191068  55.8047534
  50.7657257  44.0261068  56.6057534  51.0897257  41.8931068  55.9877534
  51.4187257  41.2391068  55.2877534  50.4867257  41.3041068  57.2387534
  49.5627257  41.8371068  57.4637534  50.0527257  39.8061068  56.9577534
  50.9067257  39.1801068  56.6987534  49.6237257  39.3871068  57.8677534
  49.0847257  39.5861068  55.8127534  49.5147257  39.9751068  54.8897534
  49.0167257  38.0501068  55.6657534  50.0267257  37.7951068  55.3447534
  48.4127257  37.8721068  54.7757534  48.6747257  37.5801068  56.5877534
  47.7127257  40.2741068  56.1627534  47.9127257  41.2841068  56.5187534
  46.9017257  40.1821068  55.4407534  47.3327257  39.7261068  57.0247534
  51.4257257  41.3161068  58.4627534  51.0007257  41.0781068  59.5547534
  52.7407257  41.5071068  58.2067534  53.0497257  41.6711068  57.2557534
  53.8127257  41.6611068  59.2047534  53.7497257  40.8821068  59.9647534
  55.2097257  41.6011068  58.6567534  55.4437257  42.3981068  57.9507534
  55.8617257  41.6031068  59.5297534  55.6157257  40.2611068  57.9797534
  56.8137257  39.9731068  57.8207534  54.7927257  39.4491068  57.6167534
  53.5017257  42.9731068  59.8927534  53.5597257  42.9691068  61.1077534
  53.0487257  43.9751068  59.1947534  53.2277257  44.0861068  58.2037534
  52.5377257  45.2001068  59.7457534  53.3497257  45.7251068  60.2497534
  52.2027257  46.1631068  58.4927534  52.1387257  45.6721068  57.5217534
  50.7897257  46.6821068  58.5667534  50.5327257  47.1901068  57.6377534
  50.6677257  47.2391068  59.4957534  50.0837257  45.8521068  58.5337534
  53.2347257  47.3151068  58.2967534  53.1737257  47.8071068  59.2677534
  54.2527257  46.9941068  58.0747534  52.9097257  48.3461068  57.2547534
  52.9457257  47.8531068  56.2827534  53.5827257  49.2011068  57.3017534
  51.9477257  48.8521068  57.3397534  51.3687257  45.1091068  60.7857534
  51.2117257  45.9261068  61.6607534  50.6557257  43.9761068  60.6527534
  50.8567257  43.3701068  59.8657534  49.6797257  43.5261068  61.6527534
  50.0137257  42.6391068  62.1917534  49.4777257  44.3001068  62.3927534
  48.4297257  42.9211068  60.8977534  48.3357257  42.8891068  59.7117534
  47.4617257  42.3261068  61.6437534  47.4797257  42.5111068  62.6397534
  46.4347257  41.3301068  61.1047534  46.1957257  41.7891068  60.1447534
  47.1397257  40.0071068  60.7687534  47.6497257  40.1021068  59.8107534
  48.1737257  39.4601068  61.7577534  48.4227257  38.4161068  61.5697534
  49.0577257  40.0221068  61.4557534  47.9207257  39.5321068  62.8147534
  46.1237257  38.8641068  60.4787534  46.6827257  38.0191068  60.0767534
  45.4957257  39.2921068  59.6977534  45.6687257  38.5661068  61.4227534
  45.2187257  41.2861068  61.9987534  45.3347257  41.5371068  63.1897534
  43.9947257  41.1771068  61.4127534  43.9647257  41.2701068  60.4047534
  42.7477257  41.1571068  62.2307534  42.7257257  42.0131068  62.9047534
  41.5277257  41.3151068  61.2437534  41.6367257  40.6111068  60.4187534
  40.6237257  41.1281068  61.8227534  41.1627257  42.7011068  60.7817534
  41.3167257  43.6791068  61.4987534  40.7227257  42.8991068  59.5547534
  40.6407257  42.1051068  58.9307534  40.3627257  43.7971068  59.2527534
  42.5307257  39.8541068  63.1117534  43.2557257  38.9151068  62.9437534
  41.5017257  39.7581068  63.9267534  40.8447257  40.5261068  63.9947534
  41.1017257  38.6281068  64.7297534  41.7257257  37.7531068  64.5437534
  41.4927257  38.9251068  66.1817534  41.1827257  38.0651068  66.7767534
  42.9427257  39.2691068  66.3187534  43.1567257  39.4671068  67.3687534
  43.6217257  38.4971068  65.9547534  43.0267257  40.2651068  65.8857534
  40.6867257  40.1461068  66.8337534  39.6417257  40.1241068  66.5257534
  41.0877257  41.1221068  66.5617534  40.7537257  39.9731068  67.9087534
  39.7287257  38.2471068  64.5367534  38.9997257  38.9251068  63.8407534
  39.3207257  37.1281068  65.0757534  40.0347257  36.6401068  65.6027534
  37.9037257  36.6011068  65.1087534  37.5877257  36.1871068  64.1507534
  37.8637257  35.4001068  66.0687534  36.8357257  35.0441068  66.1357534
  38.5367257  34.6111068  65.7317534  38.2407257  35.7041068  67.5597534
  39.3597257  35.9961068  67.8967534  37.3457257  35.6051068  68.4907534
  36.3887257  35.5511068  68.1637534  37.6897257  35.7621068  69.4307534
  36.9057257  37.6831068  65.6177534  37.0867257  38.3521068  66.6147534
  35.8277257  37.9131068  64.8857534  35.7197257  37.3441068  64.0537534
  34.8847257  39.0681068  64.9567534  35.5307257  39.9401068  65.0557534
  34.0657257  39.1011068  63.6157534  33.4207257  39.9711068  63.7397534
  34.7707257  39.2111068  62.7927534  33.1107257  37.9611068  63.3817534
  32.6047257  37.8621068  64.3427534  32.4617257  38.2751068  62.5657534
  33.7707257  36.6181068  63.0437534  33.0867257  35.5391068  62.9517534
  34.9297257  36.6231068  62.5937534  33.9227257  38.9831068  66.1477534
  33.1917257  39.9251068  66.3927534  34.0807257  37.9511068  67.0327534
  34.7157257  37.2201068  66.7337534  33.3267257  37.7571068  68.2747534
  32.3507257  38.2391068  68.2187534  33.2157257  36.2001068  68.5287534
  33.1287257  36.0711068  69.6077534  32.3047257  35.8391068  68.0517534
  34.3617257  35.4201068  68.1457534  34.2727257  35.0401068  67.2687534
  34.0897257  38.3321068  69.5007534  33.4337257  38.5911068  70.5327534
  35.4257257  38.6311068  69.4107534  35.8937257  38.6061068  68.5127534
  36.0867257  39.3971068  70.5297534  35.9687257  38.9321068  71.5077534
  37.5437257  39.4031068  70.0787534  37.8607257  38.4111068  69.7577534
  37.6597257  40.0971068  69.2467534  38.5737257  39.7161068  71.1427534
  38.3057257  40.5061068  72.0647534  39.7467257  39.2961068  70.9637534
  35.5327257  40.8161068  70.6107534  35.1097257  41.4451068  69.6807534
  35.4657257  41.4041068  71.8357534  35.7997257  40.8701068  72.6297534
  35.1707257  42.7621068  72.0867534  34.2377257  43.0411068  71.5967534
  35.0507257  43.0691068  73.5947534  36.0567257  42.9971068  74.0087534
  34.7637257  44.1151068  73.6967534  34.2647257  42.0661068  74.4677534
  33.0687257  41.4821068  73.9927534  32.6637257  41.8071068  73.0447534
  32.2997257  40.5951068  74.8527534  31.3697257  40.1681068  74.5077534
  32.7127257  40.3841068  76.1467534  31.9497257  39.6421068  77.0747534
  32.3917257  39.5801068  77.9247534  33.9427257  40.9391068  76.6387534
  34.1937257  40.9321068  77.6897534  34.6987257  41.7111068  75.7337534
  35.6127257  42.1551068  76.0997534  36.3537257  43.6391068  71.5467534
  36.0647257  44.7511068  71.0997534  37.5907257  43.1081068  71.3947534
  37.8147257  42.1991068  71.7817534  38.7297257  43.9761068  71.0047534
  38.3067257  44.9181068  71.3537534  39.9177257  43.7791068  72.0307534
  40.2127257  42.7301068  72.0257534  40.7647257  44.3111068  71.5977534
  39.6107257  44.2201068  73.4427534  39.9037257  43.4291068  74.3487534
  39.1177257  45.3341068  73.7057534  39.1597257  44.0661068  69.5387534
  40.1607257  44.6881068  69.1817534  38.2277257  43.6141068  68.7377534
  37.3777257  43.2091068  69.1127534  38.3967257  43.4561068  67.2297534
  39.1957257  42.7171068  67.1677534  37.0157257  42.9091068  66.8057534
  36.9857257  41.9611068  67.3427534  36.2217257  43.6231068  67.0277534
  36.8057257  42.5741068  65.2937534  37.7997257  42.2081068  64.3987534
  38.7597257  41.9601068  64.8267534  37.6237257  42.0291068  63.0277534
  38.4617257  41.6031068  62.4957534  36.3727257  42.1891068  62.4807534
  36.1147257  41.7731068  61.2167534  36.8067257  41.1851068  60.9047534
  35.2917257  42.4871068  63.3317534  34.3117257  42.6851068  62.9227534
  35.4727257  42.7651068  64.7027534  34.6137257  43.0171068  65.3077534
  38.7467257  44.8091068  66.4957534  39.6867257  44.8601068  65.6517534
  38.1297257  45.9301068  66.9157534  37.4607257  45.8461068  67.6717534
  38.4917257  47.2301068  66.3397534  38.5887257  47.1491068  65.2577534
  37.2987257  48.2061068  66.5767534  37.2097257  48.4601068  67.6337534
  37.4277257  49.5881068  65.9377534  37.4417257  49.4331068  64.8587534
  36.5507257  50.2081068  66.1227534  38.3147257  50.0721068  66.3477534
  35.8937257  47.7011068  66.2877534  35.7947257  46.7511068  66.8117534
  35.8257257  47.3691068  65.2517534  35.1177257  48.4291068  66.5247534
  39.7777257  47.8341068  66.9477534  40.5417257  48.4611068  66.2637534
  40.0347257  47.6671068  68.2217534  39.3607257  47.1281068  68.7527534
  41.3857257  48.1011068  68.7457534  41.4537257  49.1751068  68.5697534
  41.4227257  47.7591068  70.2257534  42.1807257  48.3691068  70.7167534
  41.6547257  46.6971068  70.3027534  40.4907257  48.0111068  70.7327534
  42.5267257  47.3781068  68.0517534  43.5217257  48.0211068  67.7347534
  42.4377257  46.0471068  67.8927534  41.5947257  45.6201068  68.2597534
  43.3567257  45.1921068  67.2147534  44.3697257  45.3391068  67.5897534
  42.8847257  43.7651068  67.5127534  41.8707257  43.6191068  67.1397534
  43.4627257  43.0401068  66.9407534  43.0617257  43.3861068  69.0097534
  44.1087257  43.3561068  69.3117534  42.5767257  44.1431068  69.6257534
  42.5337257  41.9931068  69.3367534  41.4867257  41.9171068  69.0437534
  43.0887257  41.2991068  68.7057534  42.7257257  41.6291068  70.8437534
  43.7117257  41.8621068  71.2457534  42.0427257  42.2921068  71.3757534
  42.2847257  40.2151068  71.2037534  42.7227257  39.4901068  70.6527534
  41.2867257  40.0671068  71.2387534  42.5997257  40.0671068  72.1517534
  43.4437257  45.5401068  65.7357534  44.5307257  45.5171068  65.1737534
  42.4347257  46.0141068  65.0907534  41.5947257  46.1911068  65.6277534
  42.5787257  46.5071068  63.7337534  43.1437257  45.7651068  63.1697534
  41.1817257  46.6931068  63.3067534  40.5677257  45.8831068  63.7017534
  41.0717257  46.7461068  62.2237534  40.8117257  47.6081068  63.7677534
  43.3977257  47.8171068  63.7717534  44.2327257  48.0571068  62.9397534
  43.2017257  48.7551068  64.7497534  42.5327257  48.5301068  65.4757534
  43.9017257  50.0431068  64.7837534  43.5777257  50.5911068  63.8987534
  43.3587257  50.7711068  66.0217534  43.5227257  51.8211068  65.7787534
  42.3087257  50.5041068  66.1347534  44.1897257  50.5661068  67.1567534
  44.2067257  49.6371068  67.3947534  45.4477257  49.9661068  64.7267534
  46.1067257  50.7821068  64.0757534  46.0187257  48.7901068  65.2107534
  45.4407257  48.1461068  65.7377534  47.4777257  48.6261068  65.1747534
  47.9737257  49.3501068  65.8197534  47.9797257  47.2341068  65.7487534
  47.4967257  46.4541068  65.1597534  49.5107257  46.9811068  65.5747534
  49.8457257  45.9711068  65.8127534  49.8477257  47.1381068  64.5497534
  50.0787257  47.7131068  66.1487534  47.7327257  46.8941068  67.2007534
  46.6657257  46.8961068  67.4237534  48.3197257  47.4991068  67.8907534
  48.0007257  45.8621068  67.4237534  47.9977257  48.6431068  63.6807534
  49.0237257  49.2101068  63.5107534  47.2337257  48.0481068  62.7517534
  46.3637257  47.6091068  63.0277534  47.6877257  47.9891068  61.3807534
  48.7277257  48.3101068  61.3187534  47.5337257  46.5571068  60.8067534
  47.9087257  46.4181068  59.7937534  48.1637257  45.8161068  61.2967534
  46.0557257  46.0621068  60.6227534  45.4267257  45.0621068  61.3377534
  45.9147257  44.6331068  62.2007534  44.1577257  44.8931068  60.9417534
  43.5147257  44.2661068  61.4047534  43.8077257  45.8211068  59.9957534
  42.6657257  46.1131068  59.3897534  41.7807257  45.5511068  59.6487534
  42.6547257  47.0291068  58.3067534  41.7017257  47.2231068  57.8367534
  43.8947257  47.5661068  57.7727534  43.8337257  48.1791068  56.8847534
  45.0557257  47.2171068  58.5037534  45.9807257  47.6311068  58.1307534
  45.0847257  46.3841068  59.5957534  46.9417257  49.0881068  60.5247534
  47.5027257  49.5861068  59.5347534  45.6547257  49.2981068  60.7717534
  45.2327257  48.7761068  61.5307534  44.8427257  50.3001068  60.0227534
  44.6397257  49.8251068  59.0627534  43.8647257  50.3181068  60.5057534
  45.4187257  51.7221068  60.0097534  45.3747257  52.3901068  58.9807534
  45.8567257  52.2131068  61.1697534  45.8757257  51.4971068  61.8867534
  46.5187257  53.4751068  61.2967534  45.8357257  54.2521068  60.9537534
  46.8817257  53.7271068  62.7947534  47.3647257  54.7041068  62.8027534
  45.6557257  54.0081068  63.6197534  46.0097257  54.1641068  64.6387534
  44.9857257  53.1581068  63.7457534  45.2547257  54.9501068  63.2447534
  47.6497257  52.7321068  63.3467534  47.0757257  51.9971068  63.5757534
  47.7807257  53.6291068  60.4457534  48.1007257  54.7081068  59.9727534
  48.5827257  52.5631068  60.1837534  48.3037257  51.6981068  60.6307534
  49.7967257  52.5621068  59.3317534  50.4637257  53.3621068  59.6517534
  50.5307257  51.2421068  59.3597534  49.7737257  50.4921068  59.1317534
  51.3807257  51.2991068  58.6797534  51.0947257  51.1501068  60.8267534
  51.8177257  51.9351068  61.0517534  50.2167257  51.2831068  61.4587534
  51.5197257  49.7591068  61.1147534  50.8417257  48.9331068  60.8987534
  52.4317257  49.5941068  60.5417534  51.8687257  49.6391068  62.5857534
  52.6147257  50.3871068  62.8557534  50.9787257  49.8361068  63.1817534
  52.3907257  48.2991068  62.8427534  53.3127257  48.2161068  62.4397534
  51.7987257  47.5461068  62.5217534  52.3347257  48.1011068  63.8317534
  49.3847257  52.9571068  57.9357534  50.0867257  53.6951068  57.3317534
  48.2127257  52.4321068  57.4177534  47.7387257  51.6621068  57.8737534
  47.7097257  52.8391068  56.1297534  48.5577257  52.9491068  55.4547534
  46.8537257  51.7571068  55.4967534  45.9677257  51.6931068  56.1287534
  46.5527257  52.0041068  54.4777534  47.4317257  50.3301068  55.5687534
  48.7987257  50.0651068  55.2647534  49.5167257  50.8591068  55.1227534
  49.2167257  48.7791068  55.0977534  50.2097257  48.5821068  54.7207534
  48.3877257  47.6671068  55.2327534  48.6957257  46.4061068  54.8987534
  48.0227257  45.7761068  55.1667534  47.0287257  47.9521068  55.5737534
  46.3847257  47.0891068  55.6617534  46.5117257  49.2891068  55.7927534
  45.5637257  49.6241068  56.1857534  46.8067257  54.0861068  56.0557534
  47.0357257  54.9531068  55.2407534  45.8987257  54.2511068  56.9757534
  45.9657257  53.5341068  57.6877534  44.7947257  55.2831068  56.9017534
  44.7557257  55.6981068  55.8947534  43.4017257  54.6031068  57.1987534
  43.2677257  54.3071068  58.2397534  42.6207257  55.3501068  57.0547534
  43.0607257  53.4221068  56.3067534  42.9237257  53.5351068  54.9207534
  42.9977257  54.5121068  54.4657534  42.8297257  52.4381068  54.1107534
  42.8337257  52.4761068  53.0317534  42.8197257  51.2141068  54.6727534
  42.8137257  50.3501068  54.0247534  42.9817257  50.9711068  55.9667534
  42.7827257  49.9551068  56.2747534  42.9347257  52.0631068  56.8037534
  43.1327257  51.8881068  57.8507534  44.9627257  56.4691068  57.9467534
  44.2617257  57.4531068  57.8377534  45.9167257  56.3801068  58.8417534
  46.6187257  55.6551068  58.7487534  46.0797257  57.3281068  59.9667534
  46.5357257  56.7871068  60.7957534  46.9737257  58.5611068  59.6647534
  46.5707257  59.3021068  58.9747534  47.1807257  59.0551068  60.6137534
  48.4547257  58.1241068  59.1587534  48.6407257  57.1671068  59.6447534
  48.4467257  57.8551068  58.1017534  49.6027257  59.1811068  59.3217534
  49.8497257  59.3161068  60.3747534  50.3407257  58.8001068  58.6157534
  49.2237257  60.4921068  58.7857534  48.2667257  60.7891068  58.9107534
  50.0007257  61.2511068  58.0957534  51.2947257  61.2431068  58.2787534
  51.6487257  60.7741068  59.1007534  51.7797257  61.8361068  57.6207534
  49.5677257  62.1101068  57.2667534  48.5667257  62.0461068  57.1447534
  50.0937257  62.4901068  56.4927534  44.7597257  57.7091068  60.5977534
  43.9077257  56.8501068  60.7987534  44.4967257  58.9731068  60.8997534
  45.2697257  59.6261068  60.8557534  43.1907257  59.3841068  61.4207534
  43.0257257  58.9701068  62.4147534  43.3017257  60.9281068  61.5437534
  44.1657257  61.2541068  62.1227534  43.4947257  61.3551068  60.5597534
  42.1167257  61.5591068  62.2057534  41.8127257  61.1561068  63.3167534
  41.3937257  62.4111068  61.5617534  41.5937257  62.5661068  60.5817534
  40.5407257  62.7711068  61.9727534  41.9817257  58.9541068  60.6077534
  40.9147257  58.7821068  61.2167534  42.1107257  58.6051068  59.3127534
  43.0277257  58.3781068  58.9467534  40.9577257  58.1721068  58.5037534
  40.1077257  58.8181068  58.7257534  41.3087257  58.2311068  57.0157534
  41.8547257  57.3751068  56.6187534  40.3597257  58.1531068  56.4867534
  41.8427257  59.6131068  56.5047534  41.2117257  60.6611068  56.6217534
  42.9917257  59.6301068  55.8747534  43.7087257  58.9231068  55.7597534
  43.2057257  60.6031068  55.6877534  40.4707257  56.7851068  58.9107534
  39.2567257  56.5941068  58.7687534  41.3357257  55.9861068  59.5417534
  42.2747257  56.3431068  59.6757534  40.8187257  54.7471068  60.1287534
  40.5547257  54.0561068  59.3277534  41.9527257  54.0001068  60.9717534
  42.8567257  53.8971068  60.3727534  42.1027257  54.6171068  61.8577534
  41.5167257  52.7031068  61.4927534  41.4007257  51.6471068  60.6167534
  41.6057257  51.7081068  59.5577534  40.7847257  50.4551068  60.9657534
  40.5767257  49.7021068  60.2197534  40.3577257  50.2351068  62.3127534
  39.6467257  49.4771068  62.6047534  40.5897257  51.2301068  63.2397534
  40.2647257  51.0161068  64.2477534  41.1067257  52.4771068  62.8247534
  41.2487257  53.2051068  63.6087534  39.5287257  54.8641068  60.8987534
  38.6317257  54.0601068  60.6947534  39.3447257  55.9301068  61.7137534
  40.0997257  56.5861068  61.8747534  38.1337257  56.1681068  62.4847534
  37.7757257  55.2281068  62.9037534  38.3687257  57.2371068  63.5827534
  38.2087257  58.2711068  63.2747534  37.5137257  56.9881068  64.2117534
  39.6177257  57.0161068  64.4367534  40.7727257  57.8451068  64.2777534
  40.7597257  58.7841068  63.7447534  41.9297257  57.4751068  65.0557534
  42.8217257  58.0731068  64.9467534  41.9097257  56.2891068  65.8467534
  43.0707257  56.0401068  66.4817534  43.1017257  55.1671068  66.8797534
  40.8237257  55.4761068  65.9437534  40.8397257  54.6181068  66.5977534
  39.6347257  55.8641068  65.3197534  38.6927257  55.3551068  65.4597534
  36.9857257  56.7061068  61.5857534  35.8487257  56.3791068  61.8437534
  37.2327257  57.3761068  60.4907534  38.2087257  57.4091068  60.2207534
  36.2387257  57.7031068  59.5337534  35.4157257  58.1131068  60.1197534
  36.7297257  58.7651068  58.6077534  37.1437257  59.5521068  59.2377534
  37.6097257  58.3831068  58.0907534  35.4877257  59.3551068  57.7727534
  35.0657257  58.6141068  57.0937534  34.6797257  59.6621068  58.4367534
  35.8937257  60.5341068  56.9107534  36.3217257  61.3341068  57.5147534
  36.5847257  60.2331068  56.1227534  34.6567257  61.0481068  56.2967534
  33.8807257  61.1871068  56.9277534  34.4237257  61.1691068  55.0027534
  35.3727257  61.1831068  54.1557534  36.3157257  61.2551068  54.5087534
  35.1937257  61.4071068  53.1867534  33.2347257  61.4301068  54.5407534
  32.4687257  61.5871068  55.1807534  32.9607257  61.5771068  53.5797534
  35.7277257  56.5081068  58.8397534  34.5187257  56.3311068  58.5087534
  36.5907257  55.5441068  58.6737534  37.5107257  55.6561068  59.0827534
  36.3067257  54.3231068  57.9307534  35.7087257  54.5651068  57.0517534
  37.5847257  53.6421068  57.3737534  38.2557257  53.4241068  58.2047534
  37.3017257  52.7041068  56.8977534  38.3287257  54.5661068  56.3057534
  38.4117257  55.5721068  56.7167534  39.8557257  54.1591068  56.0377534
  40.1857257  53.8401068  57.0257534  40.4647257  54.9971068  55.6967534
  40.0527257  53.2631068  55.4497534  37.6107257  54.5961068  54.9197534
  37.3897257  53.5881068  54.5697534  36.6157257  54.9181068  55.2247534
  38.1617257  55.1801068  54.1817534  35.5077257  53.2991068  58.7457534
  34.6157257  52.6741068  58.2967534  35.8137257  53.1691068  60.0737534
  36.7267257  53.5381068  60.3127534  35.0487257  52.3971068  60.9807534
  34.8547257  51.3891068  60.6157534  35.7927257  52.1851068  62.2807534
  36.1247257  53.1321068  62.7077534  34.8937257  51.6461068  63.3617534
  35.4647257  51.4491068  64.2687534  33.9737257  52.2071068  63.5287534
  34.4377257  50.6791068  63.1497534  36.8837257  51.1851068  62.1547534
  37.3477257  51.0191068  63.1277534  37.6677257  51.6191068  61.5347534
  36.5297257  50.2531068  61.7147534  33.6557257  53.0321068  61.2097534
  32.6477257  52.3601068  61.2467534  33.5327257  54.3671068  61.2157534
  34.2917257  55.0331068  61.1317534  32.2137257  54.9991068  61.1687534
  31.5987257  54.5991068  61.9747534  32.3957257  56.4971068  61.4087534
  33.2687257  56.6391068  62.0457534  32.6307257  56.9961068  60.4687534
  31.1537257  57.2291068  61.9287534  30.1347257  56.5571068  62.2477534
  31.1827257  58.4561068  61.9597534  31.3937257  54.5731068  59.8837534
  30.2297257  54.1931068  59.9617534  32.0037257  54.6131068  58.6647534
  32.9557257  54.9521068  58.6017534  31.3497257  54.2731068  57.3887534
  30.3697257  54.7491068  57.3427534  32.2807257  54.8061068  56.2497534
  33.2317257  54.4041068  56.6007534  31.8397257  54.1071068  54.8687534
  32.3957257  54.4631068  54.0007534  30.8087257  54.4411068  54.7577534
  32.0107257  53.0301068  54.8687534  32.2257257  56.4101068  56.2457534
  31.2537257  56.8311068  55.9877534  32.3477257  56.8241068  57.2467534
  33.1037257  56.9951068  55.1197534  33.1267257  58.0831068  55.1817534
  32.9077257  56.7231068  54.0817534  34.1157257  56.6831068  55.3757534
  31.1217257  52.7811068  57.2667534  30.0657257  52.4461068  56.6587534
  31.9727257  51.8841068  57.7667534  32.7957257  52.2451068  58.2347534
  31.8537257  50.4111068  57.7977534  31.7717257  50.0431068  56.7747534
  33.2047257  49.6771068  58.2447534  33.9137257  49.8941068  57.4457534
  33.6977257  50.0331068  59.1497534  33.0417257  48.2041068  58.5317534
  34.0137257  47.7831068  58.7897534  32.3587257  48.0961068  59.3747534
  32.5697257  47.3711068  57.3127534  31.5577257  47.6891068  57.0607534
  33.2397257  47.5171068  56.4667534  32.5597257  45.8881068  57.6957534
  33.4547257  45.6781068  58.2817534  31.7347257  45.6771068  58.3767534
  32.5717257  44.9611068  56.5347534  31.6527257  44.7991068  56.1497534
  32.8967257  44.0341068  56.7697534  33.2227257  45.3261068  55.8537534
  30.6217257  50.0431068  58.5967534  29.9317257  49.0871068  58.2727534
  30.3887257  50.8271068  59.6437534  30.9847257  51.6321068  59.7957534
  29.2247257  50.6881068  60.5207534  28.9787257  49.6291068  60.6077534
  29.5127257  51.1271068  61.9817534  29.2717257  52.1821068  62.1097534
  28.6247257  50.2901068  62.9537534  28.7487257  50.7211068  63.9467534
  28.8547257  49.2241068  62.9567534  27.5607257  50.3151068  62.7187534
  30.7467257  50.8371068  62.4017534  31.3857257  51.5241068  62.1987534
  27.8557257  51.3911068  60.0027534  26.9177257  51.5291068  60.8217534
  27.7767257  51.6861068  58.7167534  28.5937257  51.6771068  58.1167534
  26.5837257  52.1341068  57.9727534  25.7907257  51.5661068  58.4597534
  26.2627257  53.6471068  58.0257534  26.3227257  54.1231068  59.0037534
  27.3757257  54.3991068  57.2727534  27.2877257  54.1621068  56.2127534
  28.3797257  54.2001068  57.6477534  27.1557257  55.4621068  57.1707534
  24.8257257  53.8301068  57.4867534  24.7017257  54.9131068  57.4537534
  24.6687257  53.5691068  56.4407534  23.6907257  53.2691068  58.3367534
  23.8377257  53.6651068  59.3417534  23.7007257  52.1801068  58.2817534
  22.7167257  53.6151068  57.9937534  26.5027257  51.3851068  56.5377534
  25.4427257  50.9621068  56.1717534  27.5557257  51.0211068  55.8597534
  28.4577257  51.4461068  56.0397534  27.4827257  50.1711068  54.6617534
  26.6687257  50.5111068  54.0227534  28.7157257  50.4611068  53.7777534
  28.8877257  51.5361068  53.7317534  30.0457257  49.8401068  54.2077534
  30.7277257  49.8791068  53.3577534  30.4827257  50.2711068  55.1077534
  29.9557257  48.7621068  54.3407534  28.4857257  49.8971068  52.2917534
  29.3667257  50.2141068  51.7337534  27.5497257  50.2081068  51.8287534
  28.4227257  48.8131068  52.3847534  27.3147257  48.6611068  54.8197534
  26.8177257  47.9671068  53.9517534  27.9107257  48.1701068  55.8877534
  28.3037257  48.8651068  56.5107534  27.9387257  46.7581068  56.3267534
  26.9527257  46.3091068  56.2027534  28.9617257  45.9781068  55.4277534
  28.7747257  46.3001068  54.4027534  29.9737257  46.2571068  55.7197534
  29.0387257  44.4561068  55.6237534  27.9857257  43.8311068  55.9857534
  30.1327257  43.8941068  55.5207534  28.1547257  46.5261068  57.8237534
  29.0397257  45.8231068  58.2457534  27.1627257  46.9901068  58.6847534
  26.0597257  47.9531068  58.4077534  25.4547257  47.6761068  57.5357534
  26.4267257  48.9711068  58.2277534  25.1907257  47.9001068  59.6647534
  24.5137257  47.0561068  59.5317534  24.4567257  48.6701068  59.8987534
  26.1507257  47.4841068  60.7777534  25.5927257  46.9791068  61.5667534
  26.5087257  48.3801068  61.2847534  27.2477257  46.6701068  60.1207534
  28.1857257  47.0651068  60.5127534  27.0787257  45.1741068  60.4367534
  27.3587257  44.7841068  61.5737534  26.5767257  44.4381068  59.4527534
  26.4037257  44.9461068  58.5937534  26.4167257  42.9711068  59.4417534
  25.8787257  42.6171068  60.3217534  25.7487257  42.4301068  58.1577534
  26.3217257  41.5551068  57.8497534  24.3137257  41.9911068  58.5277534
  24.5267257  41.2291068  59.2767534  23.6467257  41.6131068  57.7537534
  23.7647257  42.7881068  59.0307534  25.6637257  43.2941068  57.1397534
  26.4777257  43.4151068  56.6457534  27.7587257  42.2551068  59.4157534
  27.8677257  41.0761068  59.7127534  28.8037257  42.9001068  59.0017534
  28.6957257  43.9041068  58.9197534  30.1797257  42.4851068  58.7457534
  30.6597257  43.3251068  58.2437534  30.9017257  42.5001068  60.0617534
  30.6177257  43.4341068  60.5467534  30.6117257  41.6871068  60.7277534
  32.3727257  42.4961068  59.9457534  32.9657257  43.1091068  59.0657534
  33.1017257  41.9211068  60.8877534  32.6077257  41.4351068  61.6267534
  34.0527257  41.6421068  60.6767534  30.2927257  41.2351068  57.8967534
  31.1017257  40.3461068  58.1227534  29.4127257  41.1341068  56.9557534
  28.8187257  41.9231068  56.7307534  29.4957257  40.1041068  55.8627534
  29.3667257  39.0901068  56.2427534  28.2097257  40.4021068  55.0547534
  27.3907257  40.4421068  55.7717534  28.2007257  41.3681068  54.5487534
  27.9087257  39.3971068  53.9177534  27.3357257  38.1571068  54.1987534
  27.3257257  37.6961068  55.1757534  27.0877257  37.2401068  53.1507534
  26.8217257  36.2211068  53.3927534  27.1947257  37.6401068  51.7687534
  26.8907257  36.9471068  50.9977534  27.8297257  38.8341068  51.5897534
  28.0757257  39.1641068  50.5917534  28.2257257  39.6791068  52.5727534
  28.5927257  40.6741068  52.3687534  30.8027257  40.2111068  55.0607534
  31.4437257  39.2301068  54.7047534  31.2047257  41.4501068  54.7267534
  30.5687257  42.2151068  54.9147534  32.4447257  41.5881068  54.0057534
  32.5387257  40.7461068  53.3187534  32.2317257  42.7511068  53.0247534
  31.9667257  43.6581068  53.5687534  33.1227257  43.0371068  52.4647534
  31.1047257  42.5061068  51.9897534  29.8207257  42.9931068  52.2567534
  29.6467257  43.3981068  53.2427534  28.8067257  42.7841068  51.2667534
  27.7837257  43.1231068  51.3327534  29.0687257  42.0971068  50.0577534
  28.3077257  41.8671068  49.3267534  30.4077257  41.6341068  49.8397534
  30.6417257  41.0441068  48.9667534  31.3657257  41.8521068  50.8447534
  32.3997257  41.5941068  50.6717534  33.6837257  41.6821068  54.8967534
  33.9407257  42.7101068  55.5967534  34.4407257  40.5791068  55.0777534
  34.0677257  39.7201068  54.6897534  35.6227257  40.5411068  56.1027534
  36.1497257  41.4931068  56.0387534  35.1827257  40.2991068  57.5527534
  35.9737257  40.4401068  58.2907534  34.3537257  41.0041068  57.6117534
  34.5107257  38.9791068  57.7887534  33.6247257  38.9091068  57.1567534
  35.1737257  38.1601068  57.5087534  34.0677257  38.7861068  59.2027534
  34.9477257  38.9021068  59.8357534  33.3097257  39.5371068  59.4247534
  33.3517257  37.3911068  59.4527534  34.0117257  36.6541068  58.9967534
  33.3157257  37.1521068  60.5157534  31.9617257  37.3791068  58.9297534
  31.4107257  38.1421068  59.2967534  31.4837257  36.4911068  58.9747534
  32.1547257  37.4381068  57.9397534  36.8517257  39.6091068  55.7507534
  36.6647257  38.5821068  55.0937534  38.0837257  40.1041068  56.0087534
  38.2387257  41.0381068  56.3687534  39.3167257  39.3801068  55.7737534
  39.1837257  38.3401068  56.0717534  39.7217257  39.4221068  54.2827534
  40.7097257  38.9981068  54.1057534  39.0667257  38.7361068  53.7447534
  39.7147257  40.8081068  53.6507534  38.6247257  41.1901068  52.9797534
  37.8467257  40.4561068  52.8317534  38.6147257  42.3081068  52.2227534
  37.7187257  42.5581068  51.6737534  39.6877257  43.1961068  52.3227534
  39.5877257  44.3901068  51.6697534  40.2577257  44.9891068  52.0097534
  40.7597257  42.8781068  53.1357534  41.6807257  43.4371068  53.2187534
  40.7977257  41.6531068  53.7837534  41.6747257  41.2931068  54.3007534
  40.4297257  39.9451068  56.6527534  40.0747257  40.7491068  57.4947534
  41.6827257  39.4491068  56.4297534  41.8097257  38.7321068  55.7257534
  42.7637257  39.6911068  57.4387534  42.4227257  39.3311068  58.4097534
  44.1127257  38.9131068  57.0547534  44.3997257  39.1771068  56.0377534
  44.9087257  39.4251068  57.5967534  44.0817257  37.3851068  57.3007534
  45.1297257  37.0921068  57.2347534  43.7157257  37.1541068  58.3017534
  43.2637257  36.6261068  56.2927534  42.5687257  35.6851068  56.6237534
  43.2067257  37.0581068  55.1277534  43.1657257  41.1731068  57.6867534
  43.6187257  41.6411068  58.7387534  42.8447257  41.9571068  56.6777534
  42.3117257  41.5071068  55.9427534  43.0397257  43.3751068  56.6807534
  43.0587257  43.7261068  57.7127534  44.3357257  43.7371068  55.9677534
  44.4737257  43.4711068  54.9197534  44.4157257  44.8061068  55.7667534
  45.5567257  43.4951068  56.9007534  45.2727257  43.9891068  57.8297534
  45.5887257  42.4321068  57.1397534  46.9047257  44.0601068  56.3127534
  46.9547257  44.5381068  55.2107534  47.9257257  44.1041068  57.1787534
  48.7687257  44.6081068  56.9327534  47.7727257  43.7321068  58.1087534
  41.7837257  44.1801068  56.1837534  41.8287257  45.3551068  55.7937534
  40.5747257  43.6731068  56.2477534  40.5247257  42.7301068  56.6137534
  39.3387257  44.4691068  55.9667534  39.4307257  45.0021068  55.0197534
  38.1427257  43.6161068  55.7077534  37.2357257  44.2211068  55.6797534
  38.2627257  43.0521068  54.7827534  37.9847257  42.8001068  56.8047534
  37.2027257  43.1551068  57.2347534  39.1247257  45.4851068  57.1477534
  39.7577257  45.4081068  58.1737534  38.2997257  46.5401068  57.0427534
  37.7507257  46.6131068  56.1947534  37.8127257  47.3881068  58.1057534
  38.6067257  47.5171068  58.8407534  37.4027257  48.7961068  57.5607534
  36.4097257  48.7441068  57.1157534  37.0327257  49.7111068  58.7617534
  37.8557257  49.8121068  59.4697534  36.1477257  49.2901068  59.2377534
  36.8007257  50.7031068  58.3737534  38.5237257  49.4441068  56.7887534
  38.2517257  50.4971068  56.7207534  39.5097257  49.3331068  57.2387534
  38.5577257  49.1261068  55.3047534  38.8987257  50.0401068  54.8177534
  37.5937257  48.7801068  54.9317534  39.3157257  48.4941068  54.8417534
  36.6867257  46.7261068  58.9337534  35.6897257  46.4271068  58.3007534
  36.7637257  46.5901068  60.2197534  37.9207257  46.7931068  61.0837534
  38.0547257  47.7971068  61.5057534  38.8307257  46.5101068  60.5397534
  37.7797257  45.7901068  62.1577534  38.3677257  46.0441068  63.0397534
  38.0897257  44.7811068  61.8837534  36.3007257  45.8461068  62.4627534
  36.2527257  46.6641068  63.1817534  35.8517257  44.9501068  62.8917534
  35.7017257  46.1481068  61.1217534  35.1917257  45.2651068  60.7367534
  34.6087257  47.2461068  61.2527534  34.8997257  48.4141068  61.1157534
  33.3107257  46.9081068  61.5597534  32.6907257  45.6191068  61.4967534
  33.1547257  44.8891068  62.1717534  32.6867257  45.4371068  60.4147534
  31.2587257  45.8231068  61.9767534  31.0777257  45.3191068  62.9267534
  30.4877257  45.4751068  61.2887534  31.0417257  47.3541068  61.9517534
  30.3247257  47.9041068  62.5617534  30.8257257  47.6931068  60.9387534
  32.4557257  47.8621068  62.2437534  32.4837257  48.8081068  61.7037534
  32.7027257  47.9781068  63.7497534  33.4567257  47.1671068  64.2637534
  32.1017257  48.9571068  64.3997534  31.5247257  49.5161068  63.7817534
  32.1087257  49.1981068  65.8717534  33.1587257  49.3111068  66.1437534
  31.3807257  50.4431068  66.2927534  30.3617257  50.4271068  65.9037534
  31.2017257  50.5521068  67.3617534  32.0297257  51.6921068  65.8127534
  32.1297257  51.6071068  64.7307534  31.2157257  52.9281068  66.2717534
  30.2127257  52.5961068  66.5437534  31.2237257  53.7621068  65.5707534
  31.7137257  53.3511068  67.1437534  33.3907257  51.8331068  66.4487534
  33.2547257  51.7911068  67.5297534  34.0487257  51.0461068  66.0807534
  33.8517257  52.7891068  66.1997534  31.6607257  47.9841068  66.7097534
  30.7707257  47.2291068  66.2607534  32.2127257  47.6801068  67.9727534
  33.0587257  48.5601068  68.8027534  32.3997257  49.3171068  69.2447534
  33.8147257  49.1591068  68.2817534  33.5637257  47.7571068  70.0187534
  33.6817257  48.3561068  70.9217534  34.5387257  47.3751068  69.7177534
  32.5497257  46.6201068  70.2127534  31.9597257  46.8581068  71.0977534
  32.9597257  45.6191068  70.3467534  31.6837257  46.6481068  68.8627534
  31.6707257  45.6691068  68.3827534  30.1927257  46.8011068  69.1407534
  29.7287257  47.9321068  69.0927534  29.4507257  45.7571068  69.6857534
  29.8527257  44.3571068  69.7817534  30.7807257  44.3001068  70.3627534
  30.1587257  43.9131068  68.8257534  28.7377257  43.5361068  70.5587534
  29.1997257  42.8941068  71.3077534  28.1407257  42.9761068  69.8387534
  27.9457257  44.6831068  71.1577534  28.4507257  44.8341068  72.1117534
  26.9467257  44.3871068  71.4777534  28.0947257  45.9081068  70.2757534
  27.2557257  45.8201068  69.5857534  28.0417257  47.1291068  71.1807534
  28.8977257  47.2761068  72.0047534  27.0257257  47.9881068  71.0317534
  26.4657257  47.7031068  70.2377534  26.6107257  49.0671068  71.8527534
  27.4557257  49.7521068  71.9197534  25.2577257  49.5601068  71.2207534
  25.2897257  49.5981068  70.1317534  24.4727257  48.8191068  71.3657534
  24.7187257  50.8891068  71.8397534  24.7667257  50.8361068  72.9277534
  25.7417257  51.9311068  71.4547534  26.7167257  51.6961068  71.8807534
  25.3847257  52.8551068  71.9087534  25.7607257  52.0581068  70.3717534
  23.3477257  51.4101068  71.4537534  23.1097257  52.3971068  71.8497534
  23.1927257  51.5251068  70.3807534  22.5567257  50.7381068  71.7877534
  26.4777257  48.5581068  73.3047534  25.4897257  47.8441068  73.6257534
  27.2707257  49.0161068  74.1697534 105.2639450  80.1699550  81.3281100
 105.1833500  79.2554160  81.0572810 104.8503870  80.6666620  80.6220810
 103.3957490  81.9478570  83.2090370 102.6199590  81.4679010  83.4988940
 104.0470420  81.2684220  83.0346530  97.4123320  82.2598380  84.0866130
  96.5808200  82.0047090  84.4862640  98.0204300  82.3309150  84.8224050
  95.8215270  77.2200270  77.8708520  94.9331970  77.5616240  77.7688400
  96.1056460  77.0200590  76.9789350  93.7848280  79.8205920  83.7548220
  94.3564390  79.0528120  83.7551860  93.7849820  80.1194680  82.8454830
 102.8366480  84.6235760  83.2160530 102.7674760  83.6825700  83.0549660
 103.5986340  84.7137170  83.7883100  95.0273150  75.2290280  85.5417150
  94.8475990  74.3316030  85.8219910  94.6253230  75.7762150  86.2164100
 103.8671650  77.4306140  83.4429460 104.2436470  76.5578020  83.3303130
 103.7691160  77.7664840  82.5519900  97.9976660  75.8031770  78.9046900
  98.1043410  76.7035500  79.2115660  97.0869020  75.7549740  78.6141550
 107.6495770  74.9256580  80.3757800 108.4705390  74.4353150  80.4183280
 107.6829850  75.5154240  81.1289640  95.6459820  77.7250780  84.1499490
  96.3269930  77.9889150  84.7686890  95.3307870  76.8851650  84.4837500
  99.8384390  78.7718140  83.2372080 100.3462610  79.2699110  83.8777100
 100.3697630  77.9953340  83.0611440  98.1220490  73.4116700  87.5035500
  98.1238930  73.9289090  86.6981400  97.2924800  72.9346880  87.4805430
 104.5091580  83.5236010  79.0025400 103.8908850  83.9885460  78.4388120
 105.0214830  84.2163490  79.4194910  99.3723340  83.0511880  85.6809000
  99.0392720  83.6780800  86.3230070  99.5490020  83.5773760  84.9010670
 107.8857250  76.8656960  83.1485340 107.1812820  77.1541850  83.7288450
 108.2469410  77.6757070  82.7884900  97.8035820  75.1226660  85.5105950
  98.1452630  75.9668710  85.2159820  96.8651630  75.2710400  85.6271290
  93.8774780  84.2092540  76.3765030  93.5002760  84.6979640  75.6449930
  94.1347850  84.8817820  77.0071560 101.4863710  72.6108930  81.8350540
 101.7938690  72.0555820  81.1186040 100.5564410  72.7453390  81.6523530
 106.4364210  83.2306060  85.4540610 106.8533000  83.0166170  84.6194070
 107.1604030  83.4878850  86.0249230 103.8744470  80.6757760  78.5710660
 102.9473750  80.6095140  78.7999130 104.0269290  81.6137890  78.4565900
 103.8613550  76.9474760  75.5677820 102.9217220  77.1088720  75.6530280
 104.1796810  77.6660440  75.0213810 107.9041760  82.2378060  79.0745910
 107.2854180  81.8997610  78.4272210 107.8866210  81.5937820  79.7825100
 107.3468320  78.4162600  86.4911720 106.9339500  79.2416310  86.7451710
 106.6144270  77.8307640  86.2988080  99.4801110  81.2022500  81.3530390
  99.0758110  80.4899750  80.8576290  99.5664230  80.8575740  82.2418430
  99.9482810  84.8890060  83.5169600  99.6511100  84.2835530  82.8377380
 100.8982630  84.9267370  83.4058960  98.1929730  77.9765710  85.1329430
  98.7444320  78.0861050  84.3582680  98.7073240  78.3503310  85.8484660
 106.0806460  81.4764870  76.0818660 106.5199740  80.6387300  75.9356480
 106.7934880  82.1094270  76.1682800  97.8672460  81.4985070  88.7434770
  97.7280230  82.3707870  89.1122170  96.9853820  81.1557880  88.5982710
  96.1805740  80.0967480  78.8537040  96.0603340  80.8229570  78.2418310
  95.8706630  79.3270390  78.3764950  93.8191110  83.2682620  84.6605680
  93.8971530  83.4031390  83.7161400  94.4332790  82.5598510  84.8533800
  93.8750630  84.3096790  87.2000140  94.0381670  83.8402150  86.3819510
  94.3403080  83.8020350  87.8648980  98.6469400  73.4402550  82.2360710
  98.2037550  74.2212090  81.9045230  99.2054390  73.7632440  82.9431650
 102.9339210  76.3071070  87.8396030 102.4718580  76.5154090  88.6515970
 102.5317320  75.4930420  87.5366700 101.7628220  73.0613250  77.1166540
 101.1382400  73.0573120  77.8419850 101.6758340  72.1944210  76.7202510
 100.6845300  73.9849880  84.0950310 100.9817630  74.8912710  84.0142330
 101.2330860  73.4968660  83.4809880  98.4383620  78.5636120  79.9641960
  98.2124540  78.3473290  80.8688580  97.6576150  78.9964580  79.6187930
 105.6681380  78.5699490  78.5632610 105.0690270  79.2935290  78.3796230
 106.2160990  78.5076270  77.7809060 104.2746250  77.2063030  80.5935890
 104.6675820  77.5235230  79.7804580 104.6363100  76.3274910  80.7080410
  96.0093370  75.8735370  88.7836010  95.6156760  76.7210580  88.9908790
  95.3211770  75.2361740  88.9744650  93.3110420  73.7963830  82.8166090
  93.0223470  74.3666690  83.5291070  94.0556180  73.3168280  83.1797320
  93.4980650  77.7383950  74.0268810  93.4155320  78.6814710  74.1683800
  93.1463710  77.5958860  73.1481160 104.8601390  79.7968780  84.6886670
 104.1282510  80.3055590  85.0376770 104.4625730  78.9798760  84.3875450
 101.2978780  76.4722980  83.0939160 101.3014840  76.0312930  82.2443700
 102.1929900  76.7940310  83.2010980  97.1481160  76.3549470  82.0533370
  96.8081210  76.8324700  82.8100420  96.3858480  75.9014590  81.6934470
 101.3598930  77.4735060  76.0845920 101.4811750  77.4321540  77.0331740
 100.9747440  78.3359210  75.9292650 105.3227300  75.2502460  84.1009610
 105.3400040  75.7011110  84.9451460 105.0742880  74.3508100  84.3143050
 100.3720430  79.7836200  75.4829220  99.8037330  79.3354450  74.8565130
 101.0809430  80.1428980  74.9494370 101.5986750  80.5324760  84.8404570
 101.9656880  80.0583330  85.5865910 101.4091810  81.4066330  85.1812910
  94.4627240  75.2768450  80.9698040  94.1774160  74.9124120  81.8076660
  94.4006100  74.5448910  80.3561180  99.3886120  79.5733400  87.1588780
  99.0843190  80.4525380  87.3839140 100.3432580  79.6333190  87.1946220
  97.9167910  83.7794390  77.7555630  97.1430170  83.2392010  77.5954350
  98.6462540  83.2601000  77.4173390 108.6755890  82.7759750  83.5482020
 109.3955010  83.2715040  83.1578130 108.4737710  82.0977640  82.9035890
 104.1365830  74.1697710  77.6911410 103.3230440  73.6710880  77.6156720
 103.9427780  75.0095960  77.2747760 106.8514220  78.5417360  75.9873570
 107.7393840  78.8534590  75.8124910 106.8219310  77.6689610  75.5954150
  97.9605310  83.4474770  81.3934440  98.4783980  82.6443030  81.3391330
  97.5089330  83.3853910  82.2351270  95.4449850  80.4136140  88.3060140
  95.0864790  81.0789990  88.8933480  95.1504410  79.5819690  88.6772760
 105.7302220  84.0356890  82.0307250 106.0826040  83.4385020  81.3708620
 104.8464550  83.7101120  82.2015500  93.9557900  80.4127400  74.9294740
  94.8252750  80.6952200  75.2130660  93.4648220  81.2263270  74.8143550
 101.1192710  81.8000610  79.0503020 101.5755490  82.6105860  79.2763210
 100.7680920  81.4823750  79.8821510  97.0204490  72.1438260  79.5225540
  96.8919120  72.1356160  80.4710460  96.1966510  72.4821350  79.1716550
 108.1229370  83.5159860  76.3826070 107.8351070  83.9772550  77.1703950
 108.9181540  83.0557630  76.6510290  95.9404410  82.2300870  77.0576800
  95.3332360  82.9699770  77.0672100  96.4153760  82.3200230  76.2315000
 105.5137200  76.3951690  86.7333690 105.8818020  75.5746900  87.0613260
 104.6535400  76.4553580  87.1489340 108.8799230  75.3508630  77.5421250
 108.2512390  75.4554300  76.8279480 108.3851150  75.5705410  78.3315130
 100.8483260  77.6294580  78.9579130 100.1399410  78.0980920  79.3992740
 101.1327740  76.9716590  79.5924320 102.4739190  79.0491280  86.9571660
 102.9724440  79.5237100  87.6223510 102.6162140  78.1254800  87.1641690
 104.8798690  74.3545240  80.3974920 104.7566470  74.3731370  79.4484430
 105.8283250  74.4024180  80.5173320  99.0518280  75.9379660  76.3329840
  99.9008810  76.3749810  76.2670030  98.6849550  76.2499920  77.1601900
 107.9728060  80.5092420  81.2461410 107.0318200  80.5242650  81.4209100
 108.2872130  79.7228380  81.6921710  97.9509700  82.1912020  74.8065370
  98.7172970  82.0793380  75.3690800  98.0284390  81.4949990  74.1542140
  96.6456460  79.6237090  75.4898260  96.7260050  78.6764600  75.6015660
  97.5376210  79.9543970  75.5958920 101.0750880  84.1666200  74.2800720
 100.9701520  83.5518550  75.0062100 100.9075100  83.6432090  73.4963730
 104.3153610  83.2286230  74.8842710 103.7663710  83.6755530  75.5285450
 104.9372870  82.7235480  75.4080380  99.9828730  82.1877150  76.7808010
 100.4045150  82.0217020  77.6239400 100.1079570  81.3777380  76.2863150
 102.4956370  81.2114760  74.0285110 103.0162030  80.4963780  73.6626260
 103.1424770  81.8500630  74.3285620 101.3989890  73.6909310  86.7003670
 100.9507190  73.7133570  85.8549220 100.7655090  73.2928330  87.2973970
 101.8049440  82.5863640  87.3216110 102.2237550  83.4296370  87.1492350
 100.8858070  82.7235680  87.0922890 106.4801240  80.8717010  87.2816460
 105.9536460  81.3959630  86.6781600 106.8232580  81.5044400  87.9126190
  98.8787630  78.2610380  73.7266170  98.6776690  77.3977740  74.0879510
  98.7079680  78.1743740  72.7887770 106.3575940  73.0718610  76.2553050
 106.6378230  72.2286510  76.6112470 105.5841670  73.3041720  76.7691800
  97.6770430  75.3611000  73.7144050  97.9796330  75.3678430  72.8063200
  98.4165020  75.0108860  74.2111710 100.8955360  74.3045620  74.7000250
 100.5477360  73.6269610  74.1202700 101.0968130  73.8435130  75.5143640
  94.2361000  80.8333270  81.0964620  93.5809840  80.5644910  80.4524320
  95.0738950  80.7237750  80.6466600 107.1851440  75.6274560  75.3183110
 107.6036320  75.4405540  74.4779770 106.8787500  74.7753610  75.6286040
  95.2736930  81.2185840  85.6367960  95.6409970  81.1313240  86.5163980
  94.7047750  80.4552390  85.5374820  93.4499080  78.0432200  77.0389950
  92.5463160  78.3062400  76.8641610  93.9339700  78.3143370  76.2589910
  95.9926290  77.0997740  74.9484330  96.7017990  76.6780960  74.4631610
  95.2766230  77.1672970  74.3167680  95.6400450  73.1537070  73.9886980
  96.3628580  73.6946010  74.3068200  95.9124970  72.8800490  73.1128520
  95.3292640  72.4043260  83.8909600  95.9768830  71.8540640  83.4504760
  95.7494480  72.6586410  84.7125410  95.0824640  72.5598930  86.6334920
  94.7339460  73.0162750  87.3993100  94.7512340  71.6656060  86.7157350
 105.9732060  71.9713010  86.1215920 105.0991900  72.3048120  85.9188850
 105.8642810  71.4986190  86.9467790 106.8804040  74.1783880  87.5057640
 106.5517400  73.3635640  87.1259370 107.8286340  74.1353690  87.3823330
 103.7206880  72.8882850  85.0608830 102.9378670  73.3628350  85.3405590
 103.4269810  71.9837680  84.9522010 108.2727950  73.5905950  83.1057920
 108.7136040  73.5351050  82.2579520 108.0035540  74.5063960  83.1768100
  95.0647290  73.1930330  77.5822550  95.8226650  73.3059210  77.0086580
  94.6024460  74.0299530  77.5365980 101.6061100  75.3069600  80.5724860
 100.7935610  74.9326490  80.2320740 102.1102740  74.5514680  80.8746050
 106.1086080  71.9712050  81.8107930 106.7115450  72.5432260  82.2856450
 105.3679070  72.5351490  81.5881830 109.2520680  72.3733610  77.0848210
 109.4471310  73.2717060  77.3515640 108.4650550  72.1420690  77.5781160
  97.4372440  73.7194380  76.1224520  97.9665200  72.9324180  75.9932470
  98.0700760  74.3985570  76.3560050  99.6310280  73.4569520  79.1769910
  99.0013020  72.7556830  79.3440040  99.0915420  74.2173650  78.9603070
 105.2639450  80.1699550  62.5537610 105.1833500  79.2554160  62.2829320
 104.8503870  80.6666620  61.8477320 103.3957490  81.9478570  64.4346880
 102.6199590  81.4679010  64.7245450 104.0470420  81.2684220  64.2603040
  97.4123320  82.2598380  65.3122640  96.5808200  82.0047090  65.7119150
  98.0204300  82.3309150  66.0480560  95.8215270  77.2200270  59.0965030
  94.9331970  77.5616240  58.9944910  96.1056460  77.0200590  58.2045860
  93.7848280  79.8205920  64.9804730  94.3564390  79.0528120  64.9808370
  93.7849820  80.1194680  64.0711340 102.8366480  84.6235760  64.4417040
 102.7674760  83.6825700  64.2806170 103.5986340  84.7137170  65.0139610
  95.0273150  75.2290280  66.7673660  94.8475990  74.3316030  67.0476420
  94.6253230  75.7762150  67.4420610 103.8671650  77.4306140  64.6685970
 104.2436470  76.5578020  64.5559640 103.7691160  77.7664840  63.7776410
  97.9976660  75.8031770  60.1303410  98.1043410  76.7035500  60.4372170
  97.0869020  75.7549740  59.8398060 107.6495770  74.9256580  61.6014310
 108.4705390  74.4353150  61.6439790 107.6829850  75.5154240  62.3546150
  95.6459820  77.7250780  65.3756000  96.3269930  77.9889150  65.9943400
  95.3307870  76.8851650  65.7094010  99.8384390  78.7718140  64.4628590
 100.3462610  79.2699110  65.1033610 100.3697630  77.9953340  64.2867950
  98.1220490  73.4116700  68.7292010  98.1238930  73.9289090  67.9237910
  97.2924800  72.9346880  68.7061940 104.5091580  83.5236010  60.2281910
 103.8908850  83.9885460  59.6644630 105.0214830  84.2163490  60.6451420
  99.3723340  83.0511880  66.9065510  99.0392720  83.6780800  67.5486580
  99.5490020  83.5773760  66.1267180 107.8857250  76.8656960  64.3741850
 107.1812820  77.1541850  64.9544960 108.2469410  77.6757070  64.0141410
  97.8035820  75.1226660  66.7362460  98.1452630  75.9668710  66.4416330
  96.8651630  75.2710400  66.8527800  93.8774780  84.2092540  57.6021540
  93.5002760  84.6979640  56.8706440  94.1347850  84.8817820  58.2328070
 101.4863710  72.6108930  63.0607050 101.7938690  72.0555820  62.3442550
 100.5564410  72.7453390  62.8780040 106.4364210  83.2306060  66.6797120
 106.8533000  83.0166170  65.8450580 107.1604030  83.4878850  67.2505740
 103.8744470  80.6757760  59.7967170 102.9473750  80.6095140  60.0255640
 104.0269290  81.6137890  59.6822410 103.8613550  76.9474760  56.7934330
 102.9217220  77.1088720  56.8786790 104.1796810  77.6660440  56.2470320
 107.9041760  82.2378060  60.3002420 107.2854180  81.8997610  59.6528720
 107.8866210  81.5937820  61.0081610 107.3468320  78.4162600  67.7168230
 106.9339500  79.2416310  67.9708220 106.6144270  77.8307640  67.5244590
  99.4801110  81.2022500  62.5786900  99.0758110  80.4899750  62.0832800
  99.5664230  80.8575740  63.4674940  99.9482810  84.8890060  64.7426110
  99.6511100  84.2835530  64.0633890 100.8982630  84.9267370  64.6315470
  98.1929730  77.9765710  66.3585940  98.7444320  78.0861050  65.5839190
  98.7073240  78.3503310  67.0741170  99.0401240  84.6271750  71.3933910
  98.1429770  84.8511720  71.6407310  99.0654110  84.7506690  70.4445310
 106.0806460  81.4764870  57.3075170 106.5199740  80.6387300  57.1612990
 106.7934880  82.1094270  57.3939310  97.8672460  81.4985070  69.9691280
  97.7280230  82.3707870  70.3378680  96.9853820  81.1557880  69.8239220
  96.1805740  80.0967480  60.0793550  96.0603340  80.8229570  59.4674820
  95.8706630  79.3270390  59.6021460  93.8191110  83.2682620  65.8862190
  93.8971530  83.4031390  64.9417910  94.4332790  82.5598510  66.0790310
  93.8750630  84.3096790  68.4256650  94.0381670  83.8402150  67.6076020
  94.3403080  83.8020350  69.0905490  98.6469400  73.4402550  63.4617220
  98.2037550  74.2212090  63.1301740  99.2054390  73.7632440  64.1688160
 102.9339210  76.3071070  69.0652540 102.4718580  76.5154090  69.8772480
 102.5317320  75.4930420  68.7623210 107.9343720  77.5280020  70.1949200
 107.0837310  77.2285770  70.5158270 107.7745510  77.7722030  69.2833020
 105.0293430  79.0281770  72.2947990 105.3546840  78.1945520  71.9550220
 105.8173760  79.5510290  72.4426320 101.7628220  73.0613250  58.3423050
 101.1382400  73.0573120  59.0676360 101.6758340  72.1944210  57.9459020
 100.6845300  73.9849880  65.3206820 100.9817630  74.8912710  65.2398840
 101.2330860  73.4968660  64.7066390  98.4383620  78.5636120  61.1898470
  98.2124540  78.3473290  62.0945090  97.6576150  78.9964580  60.8444440
 105.6681380  78.5699490  59.7889120 105.0690270  79.2935290  59.6052740
 106.2160990  78.5076270  59.0065570 100.8782830  79.4621700  71.8558740
 100.7826430  78.5216430  71.7059140 101.7214810  79.6836770  71.4606810
 104.2746250  77.2063030  61.8192400 104.6675820  77.5235230  61.0061090
 104.6363100  76.3274910  61.9336920  96.0093370  75.8735370  70.0092520
  95.6156760  76.7210580  70.2165300  95.3211770  75.2361740  70.2001160
 102.5838420  75.9570340  73.0789260 101.8936740  75.7642540  73.7135350
 103.3270720  76.2404980  73.6113560  93.3110420  73.7963830  64.0422600
  93.0223470  74.3666690  64.7547580  94.0556180  73.3168280  64.4053830
  93.4980650  77.7383950  55.2525320  93.4155320  78.6814710  55.3940310
  93.1463710  77.5958860  54.3737670 104.8601390  79.7968780  65.9143180
 104.1282510  80.3055590  66.2633280 104.4625730  78.9798760  65.6131960
 101.2978780  76.4722980  64.3195670 101.3014840  76.0312930  63.4700210
 102.1929900  76.7940310  64.4267490  97.1481160  76.3549470  63.2789880
  96.8081210  76.8324700  64.0356930  96.3858480  75.9014590  62.9190980
 101.3598930  77.4735060  57.3102430 101.4811750  77.4321540  58.2588250
 100.9747440  78.3359210  57.1549160 105.3227300  75.2502460  65.3266120
 105.3400040  75.7011110  66.1707970 105.0742880  74.3508100  65.5399560
 100.3720430  79.7836200  56.7085730  99.8037330  79.3354450  56.0821640
 101.0809430  80.1428980  56.1750880 108.7498050  72.6634640  71.1652500
 109.0743820  71.9324300  71.6910480 108.7854560  72.3448280  70.2633490
  95.4489610  83.6848220  70.5852460  95.0644400  83.0441890  71.1835420
  95.7601800  84.3884340  71.1547190 101.5986750  80.5324760  66.0661080
 101.9656880  80.0583330  66.8122420 101.4091810  81.4066330  66.4069420
  94.4627240  75.2768450  62.1954550  94.1774160  74.9124120  63.0333170
  94.4006100  74.5448910  61.5817690  99.3886120  79.5733400  68.3845290
  99.0843190  80.4525380  68.6095650 100.3432580  79.6333190  68.4202730
  97.9167910  83.7794390  58.9812140  97.1430170  83.2392010  58.8210860
  98.6462540  83.2601000  58.6429900 108.6755890  82.7759750  64.7738530
 109.3955010  83.2715040  64.3834640 108.4737710  82.0977640  64.1292400
 104.1365830  74.1697710  58.9167920 103.3230440  73.6710880  58.8413230
 103.9427780  75.0095960  58.5004270 104.0574690  82.8468810  70.6607530
 103.9912000  81.9264480  70.4065120 103.4279830  82.9444250  71.3752170
 106.8514220  78.5417360  57.2130080 107.7393840  78.8534590  57.0381420
 106.8219310  77.6689610  56.8210660  97.9605310  83.4474770  62.6190950
  98.4783980  82.6443030  62.5647840  97.5089330  83.3853910  63.4607780
  95.4449850  80.4136140  69.5316650  95.0864790  81.0789990  70.1189990
  95.1504410  79.5819690  69.9029270  98.6462970  80.8720380  72.4156200
  98.3463110  81.0177560  71.5184020  99.4174210  80.3125670  72.3229590
 105.7302220  84.0356890  63.2563760 106.0826040  83.4385020  62.5965130
 104.8464550  83.7101120  63.4272010  93.9557900  80.4127400  56.1551250
  94.8252750  80.6952200  56.4387170  93.4648220  81.2263270  56.0400060
 101.1192710  81.8000610  60.2759530 101.5755490  82.6105860  60.5019720
 100.7680920  81.4823750  61.1078020  97.0204490  72.1438260  60.7482050
  96.8919120  72.1356160  61.6966970  96.1966510  72.4821350  60.3973060
  94.0198420  73.9029380  70.2088750  93.3056940  74.1026300  70.8141360
  94.4393460  73.1268950  70.5803550 108.1229370  83.5159860  57.6082580
 107.8351070  83.9772550  58.3960460 108.9181540  83.0557630  57.8766800
  95.9404410  82.2300870  58.2833310  95.3332360  82.9699770  58.2928610
  96.4153760  82.3200230  57.4571510 105.5137200  76.3951690  67.9590200
 105.8818020  75.5746900  68.2869770 104.6535400  76.4553580  68.3745850
 108.8799230  75.3508630  58.7677760 108.2512390  75.4554300  58.0535990
 108.3851150  75.5705410  59.5571640 100.8483260  77.6294580  60.1835640
 100.1399410  78.0980920  60.6249250 101.1327740  76.9716590  60.8180830
 102.4739190  79.0491280  68.1828170 102.9724440  79.5237100  68.8480020
 102.6162140  78.1254800  68.3898200 104.8798690  74.3545240  61.6231430
 104.7566470  74.3731370  60.6740940 105.8283250  74.4024180  61.7429830
  99.0518280  75.9379660  57.5586350  99.9008810  76.3749810  57.4926540
  98.6849550  76.2499920  58.3858410 107.9728060  80.5092420  62.4717920
 107.0318200  80.5242650  62.6465610 108.2872130  79.7228380  62.9178220
  97.9509700  82.1912020  56.0321880  98.7172970  82.0793380  56.5947310
  98.0284390  81.4949990  55.3798650  96.6456460  79.6237090  56.7154770
  96.7260050  78.6764600  56.8272170  97.5376210  79.9543970  56.8215430
 105.2894080  85.0658420  72.9550300 104.6832240  85.0890020  72.2146050
 104.9848190  84.3341460  73.4917550  94.1727260  81.4452010  71.9510940
  94.6766280  80.8659290  72.5227170  93.4334680  81.7292240  72.4887310
 101.0750880  84.1666200  55.5057230 100.9701520  83.5518550  56.2318610
 100.9075100  83.6432090  54.7220240 101.2265200  82.8523000  71.4846460
 100.4610870  83.4208000  71.4001130 101.4081160  82.5599210  70.5914690
 104.3153610  83.2286230  56.1099220 103.7663710  83.6755530  56.7541960
 104.9372870  82.7235480  56.6336890 108.3688550  84.5828330  72.0421480
 109.1098020  84.9204090  71.5388940 107.6061230  84.7520390  71.4891250
  96.2050340  79.5881600  72.8461010  96.2455680  79.2895470  73.7546240
  97.0595840  79.9889210  72.6868530  99.9828730  82.1877150  58.0064520
 100.4045150  82.0217020  58.8495910 100.1079570  81.3777380  57.5119660
  98.1456150  78.1673700  70.8135500  97.6152610  77.6764650  70.1858840
  98.8144220  78.5957900  70.2793430 102.4956370  81.2114760  55.2541620
 103.0162030  80.4963780  54.8882770 103.1424770  81.8500630  55.5542130
 107.0434210  82.6343160  70.5776690 107.4575230  82.7888240  71.4267110
 106.1085210  82.7598380  70.7402470 107.5156380  79.9739320  72.5815840
 108.0977150  79.2191640  72.4936320 107.6918150  80.5046760  71.8047320
  98.6328450  75.1336070  70.8932790  98.5385320  74.5156820  70.1683660
  98.0525840  75.8602360  70.6662700 101.3989890  73.6909310  67.9260180
 100.9507190  73.7133570  67.0805730 100.7655090  73.2928330  68.5230480
 101.8049440  82.5863640  68.5472620 102.2237550  83.4296370  68.3748860
 100.8858070  82.7235680  68.3179400 104.1413340  80.3179820  69.9310460
 104.2609550  79.7220960  70.6705300 105.0007340  80.3549510  69.5111760
 106.4801240  80.8717010  68.5072970 105.9536460  81.3959630  67.9038110
 106.8232580  81.5044400  69.1382700  98.8787630  78.2610380  54.9522680
  98.6776690  77.3977740  55.3136020  98.7079680  78.1743740  54.0144280
 100.9082110  76.8601170  71.1886280 101.4981800  76.5517020  71.8764100
 100.0902350  76.3880920  71.3446180 105.7275540  76.4766980  71.4219300
 105.0391060  75.8148520  71.3569290 106.4481560  76.0305250  71.8667760
 106.3575940  73.0718610  57.4809560 106.6378230  72.2286510  57.8368980
 105.5841670  73.3041720  57.9948310  97.6770430  75.3611000  54.9400560
  97.9796330  75.3678430  54.0319710  98.4165020  75.0108860  55.4368220
 100.8955360  74.3045620  55.9256760 100.5477360  73.6269610  55.3459210
 101.0968130  73.8435130  56.7400150  94.2361000  80.8333270  62.3221130
  93.5809840  80.5644910  61.6780830  95.0738950  80.7237750  61.8723110
 107.1851440  75.6274560  56.5439620 107.6036320  75.4405540  55.7036280
 106.8787500  74.7753610  56.8542550  95.2736930  81.2185840  66.8624470
  95.6409970  81.1313240  67.7420490  94.7047750  80.4552390  66.7631330
  94.8252930  78.1294930  70.7682890  93.9308980  78.0961690  71.1076600
  95.3650480  78.3281720  71.5334140 108.5128860  74.9126650  72.6534640
 109.3899040  74.9210050  73.0368640 108.5249700  74.1757490  72.0426990
  93.4499080  78.0432200  58.2646460  92.5463160  78.3062400  58.0898120
  93.9339700  78.3143370  57.4846420  95.9926290  77.0997740  56.1740840
  96.7017990  76.6780960  55.6888120  95.2766230  77.1672970  55.5424190
  95.6400450  73.1537070  55.2143490  96.3628580  73.6946010  55.5324710
  95.9124970  72.8800490  54.3385030  95.3292640  72.4043260  65.1166110
  95.9768830  71.8540640  64.6761270  95.7494480  72.6586410  65.9381920
  95.0824640  72.5598930  67.8591430  94.7339460  73.0162750  68.6249610
  94.7512340  71.6656060  67.9413860 102.5949460  73.7510810  71.3810850
 102.5338350  74.3432640  72.1306260 103.5349840  73.6436770  71.2361110
 105.2324020  73.4080870  71.0203140 105.8464430  73.7260160  70.3584220
 105.7773580  72.9229460  71.6399000  95.7545280  72.0875130  71.1342200
  96.3028270  71.9063180  70.3708310  95.8200590  71.2969240  71.6698510
 105.9732060  71.9713010  67.3472430 105.0991900  72.3048120  67.1445360
 105.8642810  71.4986190  68.1724300 106.8804040  74.1783880  68.7314150
 106.5517400  73.3635640  68.3515880 107.8286340  74.1353690  68.6079840
 103.7206880  72.8882850  66.2865340 102.9378670  73.3628350  66.5662100
 103.4269810  71.9837680  66.1778520 108.2727950  73.5905950  64.3314430
 108.7136040  73.5351050  63.4836030 108.0035540  74.5063960  64.4024610
  95.0647290  73.1930330  58.8079060  95.8226650  73.3059210  58.2343090
  94.6024460  74.0299530  58.7622490 101.6061100  75.3069600  61.7981370
 100.7935610  74.9326490  61.4577250 102.1102740  74.5514680  62.1002560
 106.1086080  71.9712050  63.0364440 106.7115450  72.5432260  63.5112960
 105.3679070  72.5351490  62.8138340 109.2520680  72.3733610  58.3104720
 109.4471310  73.2717060  58.5772150 108.4650550  72.1420690  58.8037670
  97.4372440  73.7194380  57.3481030  97.9665200  72.9324180  57.2188980
  98.0700760  74.3985570  57.5816560  99.6310280  73.4569520  60.4026420
  99.0013020  72.7556830  60.5696550  99.0915420  74.2173650  60.1859580
  99.7565840  72.7353500  72.8378910  99.4750110  73.2387100  72.0739730
 100.1385540  71.9375250  72.4721040 106.3581300  72.1507080  73.4159380
 106.2446750  72.4701690  74.3110900 107.1751040  72.5519590  73.1196660
 105.2639450  80.1699550  43.7794120 105.1833500  79.2554160  43.5085830
 104.8503870  80.6666620  43.0733830 103.3957490  81.9478570  45.6603390
 102.6199590  81.4679010  45.9501960 104.0470420  81.2684220  45.4859550
  97.4123320  82.2598380  46.5379150  96.5808200  82.0047090  46.9375660
  98.0204300  82.3309150  47.2737070  95.8215270  77.2200270  40.3221540
  94.9331970  77.5616240  40.2201420  96.1056460  77.0200590  39.4302370
  93.7848280  79.8205920  46.2061240  94.3564390  79.0528120  46.2064880
  93.7849820  80.1194680  45.2967850 102.8366480  84.6235760  45.6673550
 102.7674760  83.6825700  45.5062680 103.5986340  84.7137170  46.2396120
  95.0273150  75.2290280  47.9930170  94.8475990  74.3316030  48.2732930
  94.6253230  75.7762150  48.6677120 103.8671650  77.4306140  45.8942480
 104.2436470  76.5578020  45.7816150 103.7691160  77.7664840  45.0032920
  97.9976660  75.8031770  41.3559920  98.1043410  76.7035500  41.6628680
  97.0869020  75.7549740  41.0654570 107.6495770  74.9256580  42.8270820
 108.4705390  74.4353150  42.8696300 107.6829850  75.5154240  43.5802660
  95.6459820  77.7250780  46.6012510  96.3269930  77.9889150  47.2199910
  95.3307870  76.8851650  46.9350520  99.8384390  78.7718140  45.6885100
 100.3462610  79.2699110  46.3290120 100.3697630  77.9953340  45.5124460
  98.1220490  73.4116700  49.9548520  98.1238930  73.9289090  49.1494420
  97.2924800  72.9346880  49.9318450 104.5091580  83.5236010  41.4538420
 103.8908850  83.9885460  40.8901140 105.0214830  84.2163490  41.8707930
  99.3723340  83.0511880  48.1322020  99.0392720  83.6780800  48.7743090
  99.5490020  83.5773760  47.3523690 107.8857250  76.8656960  45.5998360
 107.1812820  77.1541850  46.1801470 108.2469410  77.6757070  45.2397920
  97.8035820  75.1226660  47.9618970  98.1452630  75.9668710  47.6672840
  96.8651630  75.2710400  48.0784310  93.8774780  84.2092540  38.8278050
  93.5002760  84.6979640  38.0962950  94.1347850  84.8817820  39.4584580
 101.4863710  72.6108930  44.2863560 101.7938690  72.0555820  43.5699060
 100.5564410  72.7453390  44.1036550 106.4364210  83.2306060  47.9053630
 106.8533000  83.0166170  47.0707090 107.1604030  83.4878850  48.4762250
 103.8744470  80.6757760  41.0223680 102.9473750  80.6095140  41.2512150
 104.0269290  81.6137890  40.9078920 103.8613550  76.9474760  38.0190840
 102.9217220  77.1088720  38.1043300 104.1796810  77.6660440  37.4726830
 107.9041760  82.2378060  41.5258930 107.2854180  81.8997610  40.8785230
 107.8866210  81.5937820  42.2338120 107.3468320  78.4162600  48.9424740
 106.9339500  79.2416310  49.1964730 106.6144270  77.8307640  48.7501100
  99.4801110  81.2022500  43.8043410  99.0758110  80.4899750  43.3089310
  99.5664230  80.8575740  44.6931450  99.9482810  84.8890060  45.9682620
  99.6511100  84.2835530  45.2890400 100.8982630  84.9267370  45.8571980
  98.1929730  77.9765710  47.5842450  98.7444320  78.0861050  46.8095700
  98.7073240  78.3503310  48.2997680  99.0401240  84.6271750  52.6190420
  98.1429770  84.8511720  52.8663820  99.0654110  84.7506690  51.6701820
 106.0806460  81.4764870  38.5331680 106.5199740  80.6387300  38.3869500
 106.7934880  82.1094270  38.6195820  97.8672460  81.4985070  51.1947790
  97.7280230  82.3707870  51.5635190  96.9853820  81.1557880  51.0495730
  96.1805740  80.0967480  41.3050060  96.0603340  80.8229570  40.6931330
  95.8706630  79.3270390  40.8277970  93.8191110  83.2682620  47.1118700
  93.8971530  83.4031390  46.1674420  94.4332790  82.5598510  47.3046820
  93.8750630  84.3096790  49.6513160  94.0381670  83.8402150  48.8332530
  94.3403080  83.8020350  50.3162000  98.6469400  73.4402550  44.6873730
  98.2037550  74.2212090  44.3558250  99.2054390  73.7632440  45.3944670
 102.9339210  76.3071070  50.2909050 102.4718580  76.5154090  51.1028990
 102.5317320  75.4930420  49.9879720 107.9343720  77.5280020  51.4205710
 107.0837310  77.2285770  51.7414780 107.7745510  77.7722030  50.5089530
 105.0293430  79.0281770  53.5204500 105.3546840  78.1945520  53.1806730
 105.8173760  79.5510290  53.6682830 101.7628220  73.0613250  39.5679560
 101.1382400  73.0573120  40.2932870 101.6758340  72.1944210  39.1715530
 100.6845300  73.9849880  46.5463330 100.9817630  74.8912710  46.4655350
 101.2330860  73.4968660  45.9322900  98.4383620  78.5636120  42.4154980
  98.2124540  78.3473290  43.3201600  97.6576150  78.9964580  42.0700950
 105.6681380  78.5699490  41.0145630 105.0690270  79.2935290  40.8309250
 106.2160990  78.5076270  40.2322080 100.8782830  79.4621700  53.0815250
 100.7826430  78.5216430  52.9315650 101.7214810  79.6836770  52.6863320
 104.2746250  77.2063030  43.0448910 104.6675820  77.5235230  42.2317600
 104.6363100  76.3274910  43.1593430  96.0093370  75.8735370  51.2349030
  95.6156760  76.7210580  51.4421810  95.3211770  75.2361740  51.4257670
 102.5838420  75.9570340  54.3045770 101.8936740  75.7642540  54.9391860
 103.3270720  76.2404980  54.8370070  93.3110420  73.7963830  45.2679110
  93.0223470  74.3666690  45.9804090  94.0556180  73.3168280  45.6310340
  93.4980650  77.7383950  36.4781830  93.4155320  78.6814710  36.6196820
  93.1463710  77.5958860  35.5994180 104.8601390  79.7968780  47.1399690
 104.1282510  80.3055590  47.4889790 104.4625730  78.9798760  46.8388470
 101.2978780  76.4722980  45.5452180 101.3014840  76.0312930  44.6956720
 102.1929900  76.7940310  45.6524000  97.1481160  76.3549470  44.5046390
  96.8081210  76.8324700  45.2613440  96.3858480  75.9014590  44.1447490
 101.3598930  77.4735060  38.5358940 101.4811750  77.4321540  39.4844760
 100.9747440  78.3359210  38.3805670 105.3227300  75.2502460  46.5522630
 105.3400040  75.7011110  47.3964480 105.0742880  74.3508100  46.7656070
 100.3720430  79.7836200  37.9342240  99.8037330  79.3354450  37.3078150
 101.0809430  80.1428980  37.4007390 108.7498050  72.6634640  52.3909010
 109.0743820  71.9324300  52.9166990 108.7854560  72.3448280  51.4890000
  95.4489610  83.6848220  51.8108970  95.0644400  83.0441890  52.4091930
  95.7601800  84.3884340  52.3803700 101.5986750  80.5324760  47.2917590
 101.9656880  80.0583330  48.0378930 101.4091810  81.4066330  47.6325930
  94.4627240  75.2768450  43.4211060  94.1774160  74.9124120  44.2589680
  94.4006100  74.5448910  42.8074200  99.3886120  79.5733400  49.6101800
  99.0843190  80.4525380  49.8352160 100.3432580  79.6333190  49.6459240
  97.9167910  83.7794390  40.2068650  97.1430170  83.2392010  40.0467370
  98.6462540  83.2601000  39.8686410 108.6755890  82.7759750  45.9995040
 109.3955010  83.2715040  45.6091150 108.4737710  82.0977640  45.3548910
 104.1365830  74.1697710  40.1424430 103.3230440  73.6710880  40.0669740
 103.9427780  75.0095960  39.7260780 104.0574690  82.8468810  51.8864040
 103.9912000  81.9264480  51.6321630 103.4279830  82.9444250  52.6008680
 106.8514220  78.5417360  38.4386590 107.7393840  78.8534590  38.2637930
 106.8219310  77.6689610  38.0467170  97.9605310  83.4474770  43.8447460
  98.4783980  82.6443030  43.7904350  97.5089330  83.3853910  44.6864290
  95.4449850  80.4136140  50.7573160  95.0864790  81.0789990  51.3446500
  95.1504410  79.5819690  51.1285780  98.6462970  80.8720380  53.6412710
  98.3463110  81.0177560  52.7440530  99.4174210  80.3125670  53.5486100
 105.7302220  84.0356890  44.4820270 106.0826040  83.4385020  43.8221640
 104.8464550  83.7101120  44.6528520  93.9557900  80.4127400  37.3807760
  94.8252750  80.6952200  37.6643680  93.4648220  81.2263270  37.2656570
 101.1192710  81.8000610  41.5016040 101.5755490  82.6105860  41.7276230
 100.7680920  81.4823750  42.3334530  97.0204490  72.1438260  41.9738560
  96.8919120  72.1356160  42.9223480  96.1966510  72.4821350  41.6229570
  94.0198420  73.9029380  51.4345260  93.3056940  74.1026300  52.0397870
  94.4393460  73.1268950  51.8060060 108.1229370  83.5159860  38.8339090
 107.8351070  83.9772550  39.6216970 108.9181540  83.0557630  39.1023310
  95.9404410  82.2300870  39.5089820  95.3332360  82.9699770  39.5185120
  96.4153760  82.3200230  38.6828020 105.5137200  76.3951690  49.1846710
 105.8818020  75.5746900  49.5126280 104.6535400  76.4553580  49.6002360
 108.8799230  75.3508630  39.9934270 108.2512390  75.4554300  39.2792500
 108.3851150  75.5705410  40.7828150 100.8483260  77.6294580  41.4092150
 100.1399410  78.0980920  41.8505760 101.1327740  76.9716590  42.0437340
 102.4739190  79.0491280  49.4084680 102.9724440  79.5237100  50.0736530
 102.6162140  78.1254800  49.6154710 104.8798690  74.3545240  42.8487940
 104.7566470  74.3731370  41.8997450 105.8283250  74.4024180  42.9686340
  99.0518280  75.9379660  38.7842860  99.9008810  76.3749810  38.7183050
  98.6849550  76.2499920  39.6114920 107.9728060  80.5092420  43.6974430
 107.0318200  80.5242650  43.8722120 108.2872130  79.7228380  44.1434730
  97.9509700  82.1912020  37.2578390  98.7172970  82.0793380  37.8203820
  98.0284390  81.4949990  36.6055160  96.6456460  79.6237090  37.9411280
  96.7260050  78.6764600  38.0528680  97.5376210  79.9543970  38.0471940
 105.2894080  85.0658420  54.1806810 104.6832240  85.0890020  53.4402560
 104.9848190  84.3341460  54.7174060  94.1727260  81.4452010  53.1767450
  94.6766280  80.8659290  53.7483680  93.4334680  81.7292240  53.7143820
 101.0750880  84.1666200  36.7313740 100.9701520  83.5518550  37.4575120
 100.9075100  83.6432090  35.9476750 101.2265200  82.8523000  52.7102970
 100.4610870  83.4208000  52.6257640 101.4081160  82.5599210  51.8171200
 104.3153610  83.2286230  37.3355730 103.7663710  83.6755530  37.9798470
 104.9372870  82.7235480  37.8593400 108.3688550  84.5828330  53.2677990
 109.1098020  84.9204090  52.7645450 107.6061230  84.7520390  52.7147760
  96.2050340  79.5881600  54.0717520  96.2455680  79.2895470  54.9802750
  97.0595840  79.9889210  53.9125040  99.9828730  82.1877150  39.2321030
 100.4045150  82.0217020  40.0752420 100.1079570  81.3777380  38.7376170
  98.1456150  78.1673700  52.0392010  97.6152610  77.6764650  51.4115350
  98.8144220  78.5957900  51.5049940 102.4956370  81.2114760  36.4798130
 103.0162030  80.4963780  36.1139280 103.1424770  81.8500630  36.7798640
 107.0434210  82.6343160  51.8033200 107.4575230  82.7888240  52.6523620
 106.1085210  82.7598380  51.9658980 107.5156380  79.9739320  53.8072350
 108.0977150  79.2191640  53.7192830 107.6918150  80.5046760  53.0303830
  98.6328450  75.1336070  52.1189300  98.5385320  74.5156820  51.3940170
  98.0525840  75.8602360  51.8919210 101.3989890  73.6909310  49.1516690
 100.9507190  73.7133570  48.3062240 100.7655090  73.2928330  49.7486990
 101.8049440  82.5863640  49.7729130 102.2237550  83.4296370  49.6005370
 100.8858070  82.7235680  49.5435910 104.1413340  80.3179820  51.1566970
 104.2609550  79.7220960  51.8961810 105.0007340  80.3549510  50.7368270
 106.4801240  80.8717010  49.7329480 105.9536460  81.3959630  49.1294620
 106.8232580  81.5044400  50.3639210  98.8787630  78.2610380  36.1779190
  98.6776690  77.3977740  36.5392530  98.7079680  78.1743740  35.2400790
 100.9082110  76.8601170  52.4142790 101.4981800  76.5517020  53.1020610
 100.0902350  76.3880920  52.5702690 105.7275540  76.4766980  52.6475810
 105.0391060  75.8148520  52.5825800 106.4481560  76.0305250  53.0924270
 106.3575940  73.0718610  38.7066070 106.6378230  72.2286510  39.0625490
 105.5841670  73.3041720  39.2204820  97.6770430  75.3611000  36.1657070
  97.9796330  75.3678430  35.2576220  98.4165020  75.0108860  36.6624730
 100.8955360  74.3045620  37.1513270 100.5477360  73.6269610  36.5715720
 101.0968130  73.8435130  37.9656660  94.2361000  80.8333270  43.5477640
  93.5809840  80.5644910  42.9037340  95.0738950  80.7237750  43.0979620
 107.1851440  75.6274560  37.7696130 107.6036320  75.4405540  36.9292790
 106.8787500  74.7753610  38.0799060  95.2736930  81.2185840  48.0880980
  95.6409970  81.1313240  48.9677000  94.7047750  80.4552390  47.9887840
  94.8252930  78.1294930  51.9939400  93.9308980  78.0961690  52.3333110
  95.3650480  78.3281720  52.7590650 108.5128860  74.9126650  53.8791150
 109.3899040  74.9210050  54.2625150 108.5249700  74.1757490  53.2683500
  93.4499080  78.0432200  39.4902970  92.5463160  78.3062400  39.3154630
  93.9339700  78.3143370  38.7102930  95.9926290  77.0997740  37.3997350
  96.7017990  76.6780960  36.9144630  95.2766230  77.1672970  36.7680700
  95.6400450  73.1537070  36.4400000  96.3628580  73.6946010  36.7581220
  95.9124970  72.8800490  35.5641540  95.3292640  72.4043260  46.3422620
  95.9768830  71.8540640  45.9017780  95.7494480  72.6586410  47.1638430
  95.0824640  72.5598930  49.0847940  94.7339460  73.0162750  49.8506120
  94.7512340  71.6656060  49.1670370 102.5949460  73.7510810  52.6067360
 102.5338350  74.3432640  53.3562770 103.5349840  73.6436770  52.4617620
 105.2324020  73.4080870  52.2459650 105.8464430  73.7260160  51.5840730
 105.7773580  72.9229460  52.8655510  95.7545280  72.0875130  52.3598710
  96.3028270  71.9063180  51.5964820  95.8200590  71.2969240  52.8955020
 105.9732060  71.9713010  48.5728940 105.0991900  72.3048120  48.3701870
 105.8642810  71.4986190  49.3980810 106.8804040  74.1783880  49.9570660
 106.5517400  73.3635640  49.5772390 107.8286340  74.1353690  49.8336350
 103.7206880  72.8882850  47.5121850 102.9378670  73.3628350  47.7918610
 103.4269810  71.9837680  47.4035030 108.2727950  73.5905950  45.5570940
 108.7136040  73.5351050  44.7092540 108.0035540  74.5063960  45.6281120
  95.0647290  73.1930330  40.0335570  95.8226650  73.3059210  39.4599600
  94.6024460  74.0299530  39.9879000 101.6061100  75.3069600  43.0237880
 100.7935610  74.9326490  42.6833760 102.1102740  74.5514680  43.3259070
 106.1086080  71.9712050  44.2620950 106.7115450  72.5432260  44.7369470
 105.3679070  72.5351490  44.0394850 109.2520680  72.3733610  39.5361230
 109.4471310  73.2717060  39.8028660 108.4650550  72.1420690  40.0294180
  97.4372440  73.7194380  38.5737540  97.9665200  72.9324180  38.4445490
  98.0700760  74.3985570  38.8073070  99.6310280  73.4569520  41.6282930
  99.0013020  72.7556830  41.7953060  99.0915420  74.2173650  41.4116090
  99.7565840  72.7353500  54.0635420  99.4750110  73.2387100  53.2996240
 100.1385540  71.9375250  53.6977550 106.3581300  72.1507080  54.6415890
 106.2446750  72.4701690  55.5367410 107.1751040  72.5519590  54.3453170
 105.2639450  80.1699550  25.0050630 105.1833500  79.2554160  24.7342340
 104.8503870  80.6666620  24.2990340 103.3957490  81.9478570  26.8859900
 102.6199590  81.4679010  27.1758470 104.0470420  81.2684220  26.7116060
  97.4123320  82.2598380  27.7635660  96.5808200  82.0047090  28.1632170
  98.0204300  82.3309150  28.4993580  95.8215270  77.2200270  21.5478050
  94.9331970  77.5616240  21.4457930  96.1056460  77.0200590  20.6558880
  93.7848280  79.8205920  27.4317750  94.3564390  79.0528120  27.4321390
  93.7849820  80.1194680  26.5224360 102.8366480  84.6235760  26.8930060
 102.7674760  83.6825700  26.7319190 103.5986340  84.7137170  27.4652630
  95.0273150  75.2290280  29.2186680  94.8475990  74.3316030  29.4989440
  94.6253230  75.7762150  29.8933630 103.8671650  77.4306140  27.1198990
 104.2436470  76.5578020  27.0072660 103.7691160  77.7664840  26.2289430
  97.9976660  75.8031770  22.5816430  98.1043410  76.7035500  22.8885190
  97.0869020  75.7549740  22.2911080 107.6495770  74.9256580  24.0527330
 108.4705390  74.4353150  24.0952810 107.6829850  75.5154240  24.8059170
  95.6459820  77.7250780  27.8269020  96.3269930  77.9889150  28.4456420
  95.3307870  76.8851650  28.1607030  99.8384390  78.7718140  26.9141610
 100.3462610  79.2699110  27.5546630 100.3697630  77.9953340  26.7380970
  98.1220490  73.4116700  31.1805030  98.1238930  73.9289090  30.3750930
  97.2924800  72.9346880  31.1574960 104.5091580  83.5236010  22.6794930
 103.8908850  83.9885460  22.1157650 105.0214830  84.2163490  23.0964440
  99.3723340  83.0511880  29.3578530  99.0392720  83.6780800  29.9999600
  99.5490020  83.5773760  28.5780200 107.8857250  76.8656960  26.8254870
 107.1812820  77.1541850  27.4057980 108.2469410  77.6757070  26.4654430
  97.8035820  75.1226660  29.1875480  98.1452630  75.9668710  28.8929350
  96.8651630  75.2710400  29.3040820  93.8774780  84.2092540  20.0534560
  93.5002760  84.6979640  19.3219460  94.1347850  84.8817820  20.6841090
 101.4863710  72.6108930  25.5120070 101.7938690  72.0555820  24.7955570
 100.5564410  72.7453390  25.3293060 106.4364210  83.2306060  29.1310140
 106.8533000  83.0166170  28.2963600 107.1604030  83.4878850  29.7018760
 103.8744470  80.6757760  22.2480190 102.9473750  80.6095140  22.4768660
 104.0269290  81.6137890  22.1335430 103.8613550  76.9474760  19.2447350
 102.9217220  77.1088720  19.3299810 104.1796810  77.6660440  18.6983340
 107.9041760  82.2378060  22.7515440 107.2854180  81.8997610  22.1041740
 107.8866210  81.5937820  23.4594630 107.3468320  78.4162600  30.1681250
 106.9339500  79.2416310  30.4221240 106.6144270  77.8307640  29.9757610
  99.4801110  81.2022500  25.0299920  99.0758110  80.4899750  24.5345820
  99.5664230  80.8575740  25.9187960  99.9482810  84.8890060  27.1939130
  99.6511100  84.2835530  26.5146910 100.8982630  84.9267370  27.0828490
  98.1929730  77.9765710  28.8098960  98.7444320  78.0861050  28.0352210
  98.7073240  78.3503310  29.5254190  99.0401240  84.6271750  33.8446930
  98.1429770  84.8511720  34.0920330  99.0654110  84.7506690  32.8958330
 106.0806460  81.4764870  19.7588190 106.5199740  80.6387300  19.6126010
 106.7934880  82.1094270  19.8452330  97.8672460  81.4985070  32.4204300
  97.7280230  82.3707870  32.7891700  96.9853820  81.1557880  32.2752240
  96.1805740  80.0967480  22.5306570  96.0603340  80.8229570  21.9187840
  95.8706630  79.3270390  22.0534480  93.8191110  83.2682620  28.3375210
  93.8971530  83.4031390  27.3930930  94.4332790  82.5598510  28.5303330
  93.8750630  84.3096790  30.8769670  94.0381670  83.8402150  30.0589040
  94.3403080  83.8020350  31.5418510  98.6469400  73.4402550  25.9130240
  98.2037550  74.2212090  25.5814760  99.2054390  73.7632440  26.6201180
 102.9339210  76.3071070  31.5165560 102.4718580  76.5154090  32.3285500
 102.5317320  75.4930420  31.2136230 107.9343720  77.5280020  32.6462220
 107.0837310  77.2285770  32.9671290 107.7745510  77.7722030  31.7346040
 105.0293430  79.0281770  34.7461010 105.3546840  78.1945520  34.4063240
 105.8173760  79.5510290  34.8939340 101.7628220  73.0613250  20.7936070
 101.1382400  73.0573120  21.5189380 101.6758340  72.1944210  20.3972040
 100.6845300  73.9849880  27.7719840 100.9817630  74.8912710  27.6911860
 101.2330860  73.4968660  27.1579410  98.4383620  78.5636120  23.6411490
  98.2124540  78.3473290  24.5458110  97.6576150  78.9964580  23.2957460
 105.6681380  78.5699490  22.2402140 105.0690270  79.2935290  22.0565760
 106.2160990  78.5076270  21.4578590 100.8782830  79.4621700  34.3071760
 100.7826430  78.5216430  34.1572160 101.7214810  79.6836770  33.9119830
 104.2746250  77.2063030  24.2705420 104.6675820  77.5235230  23.4574110
 104.6363100  76.3274910  24.3849940  96.0093370  75.8735370  32.4605540
  95.6156760  76.7210580  32.6678320  95.3211770  75.2361740  32.6514180
 102.5838420  75.9570340  35.5302280 101.8936740  75.7642540  36.1648370
 103.3270720  76.2404980  36.0626580  93.3110420  73.7963830  26.4935620
  93.0223470  74.3666690  27.2060600  94.0556180  73.3168280  26.8566850
  93.4980650  77.7383950  17.7038340  93.4155320  78.6814710  17.8453330
  93.1463710  77.5958860  16.8250690 104.8601390  79.7968780  28.3656200
 104.1282510  80.3055590  28.7146300 104.4625730  78.9798760  28.0644980
 101.2978780  76.4722980  26.7708690 101.3014840  76.0312930  25.9213230
 102.1929900  76.7940310  26.8780510  97.1481160  76.3549470  25.7302900
  96.8081210  76.8324700  26.4869950  96.3858480  75.9014590  25.3704000
 101.3598930  77.4735060  19.7615450 101.4811750  77.4321540  20.7101270
 100.9747440  78.3359210  19.6062180 105.3227300  75.2502460  27.7779140
 105.3400040  75.7011110  28.6220990 105.0742880  74.3508100  27.9912580
 100.3720430  79.7836200  19.1598750  99.8037330  79.3354450  18.5334660
 101.0809430  80.1428980  18.6263900 108.7498050  72.6634640  33.6165520
 109.0743820  71.9324300  34.1423500 108.7854560  72.3448280  32.7146510
  95.4489610  83.6848220  33.0365480  95.0644400  83.0441890  33.6348440
  95.7601800  84.3884340  33.6060210 101.5986750  80.5324760  28.5174100
 101.9656880  80.0583330  29.2635440 101.4091810  81.4066330  28.8582440
  94.4627240  75.2768450  24.6467570  94.1774160  74.9124120  25.4846190
  94.4006100  74.5448910  24.0330710  99.3886120  79.5733400  30.8358310
  99.0843190  80.4525380  31.0608670 100.3432580  79.6333190  30.8715750
  97.9167910  83.7794390  21.4325160  97.1430170  83.2392010  21.2723880
  98.6462540  83.2601000  21.0942920 108.6755890  82.7759750  27.2251550
 109.3955010  83.2715040  26.8347660 108.4737710  82.0977640  26.5805420
 104.1365830  74.1697710  21.3680940 103.3230440  73.6710880  21.2926250
 103.9427780  75.0095960  20.9517290 104.0574690  82.8468810  33.1120550
 103.9912000  81.9264480  32.8578140 103.4279830  82.9444250  33.8265190
 106.8514220  78.5417360  19.6643100 107.7393840  78.8534590  19.4894440
 106.8219310  77.6689610  19.2723680  97.9605310  83.4474770  25.0703970
  98.4783980  82.6443030  25.0160860  97.5089330  83.3853910  25.9120800
  95.4449850  80.4136140  31.9829670  95.0864790  81.0789990  32.5703010
  95.1504410  79.5819690  32.3542290  98.6462970  80.8720380  34.8669220
  98.3463110  81.0177560  33.9697040  99.4174210  80.3125670  34.7742610
 105.7302220  84.0356890  25.7076780 106.0826040  83.4385020  25.0478150
 104.8464550  83.7101120  25.8785030  93.9557900  80.4127400  18.6064270
  94.8252750  80.6952200  18.8900190  93.4648220  81.2263270  18.4913080
 101.1192710  81.8000610  22.7272550 101.5755490  82.6105860  22.9532740
 100.7680920  81.4823750  23.5591040  97.0204490  72.1438260  23.1995070
  96.8919120  72.1356160  24.1479990  96.1966510  72.4821350  22.8486080
  94.0198420  73.9029380  32.6601770  93.3056940  74.1026300  33.2654380
  94.4393460  73.1268950  33.0316570 108.1229370  83.5159860  20.0595600
 107.8351070  83.9772550  20.8473480 108.9181540  83.0557630  20.3279820
  95.9404410  82.2300870  20.7346330  95.3332360  82.9699770  20.7441630
  96.4153760  82.3200230  19.9084530 105.5137200  76.3951690  30.4103220
 105.8818020  75.5746900  30.7382790 104.6535400  76.4553580  30.8258870
 108.8799230  75.3508630  21.2190780 108.2512390  75.4554300  20.5049010
 108.3851150  75.5705410  22.0084660 100.8483260  77.6294580  22.6348660
 100.1399410  78.0980920  23.0762270 101.1327740  76.9716590  23.2693850
 102.4739190  79.0491280  30.6341190 102.9724440  79.5237100  31.2993040
 102.6162140  78.1254800  30.8411220 104.8798690  74.3545240  24.0744450
 104.7566470  74.3731370  23.1253960 105.8283250  74.4024180  24.1942850
  99.0518280  75.9379660  20.0099370  99.9008810  76.3749810  19.9439560
  98.6849550  76.2499920  20.8371430 107.9728060  80.5092420  24.9230940
 107.0318200  80.5242650  25.0978630 108.2872130  79.7228380  25.3691240
  97.9509700  82.1912020  18.4834900  98.7172970  82.0793380  19.0460330
  98.0284390  81.4949990  17.8311670  96.6456460  79.6237090  19.1667790
  96.7260050  78.6764600  19.2785190  97.5376210  79.9543970  19.2728450
 105.2894080  85.0658420  35.4063320 104.6832240  85.0890020  34.6659070
 104.9848190  84.3341460  35.9430570  94.1727260  81.4452010  34.4023960
  94.6766280  80.8659290  34.9740190  93.4334680  81.7292240  34.9400330
 101.0750880  84.1666200  17.9570250 100.9701520  83.5518550  18.6831630
 100.9075100  83.6432090  17.1733260 101.2265200  82.8523000  33.9359480
 100.4610870  83.4208000  33.8514150 101.4081160  82.5599210  33.0427710
 104.3153610  83.2286230  18.5612240 103.7663710  83.6755530  19.2054980
 104.9372870  82.7235480  19.0849910 108.3688550  84.5828330  34.4934500
 109.1098020  84.9204090  33.9901960 107.6061230  84.7520390  33.9404270
  96.2050340  79.5881600  35.2974030  96.2455680  79.2895470  36.2059260
  97.0595840  79.9889210  35.1381550  99.9828730  82.1877150  20.4577540
 100.4045150  82.0217020  21.3008930 100.1079570  81.3777380  19.9632680
  98.1456150  78.1673700  33.2648520  97.6152610  77.6764650  32.6371860
  98.8144220  78.5957900  32.7306450 102.4956370  81.2114760  17.7054640
 103.0162030  80.4963780  17.3395790 103.1424770  81.8500630  18.0055150
 107.0434210  82.6343160  33.0289710 107.4575230  82.7888240  33.8780130
 106.1085210  82.7598380  33.1915490 107.5156380  79.9739320  35.0328860
 108.0977150  79.2191640  34.9449340 107.6918150  80.5046760  34.2560340
  98.6328450  75.1336070  33.3445810  98.5385320  74.5156820  32.6196680
  98.0525840  75.8602360  33.1175720 101.3989890  73.6909310  30.3773200
 100.9507190  73.7133570  29.5318750 100.7655090  73.2928330  30.9743500
 101.8049440  82.5863640  30.9985640 102.2237550  83.4296370  30.8261880
 100.8858070  82.7235680  30.7692420 104.1413340  80.3179820  32.3823480
 104.2609550  79.7220960  33.1218320 105.0007340  80.3549510  31.9624780
 106.4801240  80.8717010  30.9585990 105.9536460  81.3959630  30.3551130
 106.8232580  81.5044400  31.5895720  98.8787630  78.2610380  17.4035700
  98.6776690  77.3977740  17.7649040  98.7079680  78.1743740  16.4657300
 100.9082110  76.8601170  33.6399300 101.4981800  76.5517020  34.3277120
 100.0902350  76.3880920  33.7959200 105.7275540  76.4766980  33.8732320
 105.0391060  75.8148520  33.8082310 106.4481560  76.0305250  34.3180780
 106.3575940  73.0718610  19.9322580 106.6378230  72.2286510  20.2882000
 105.5841670  73.3041720  20.4461330  97.6770430  75.3611000  17.3913580
  97.9796330  75.3678430  16.4832730  98.4165020  75.0108860  17.8881240
 100.8955360  74.3045620  18.3769780 100.5477360  73.6269610  17.7972230
 101.0968130  73.8435130  19.1913170  94.2361000  80.8333270  24.7734150
  93.5809840  80.5644910  24.1293850  95.0738950  80.7237750  24.3236130
 107.1851440  75.6274560  18.9952640 107.6036320  75.4405540  18.1549300
 106.8787500  74.7753610  19.3055570  95.2736930  81.2185840  29.3137490
  95.6409970  81.1313240  30.1933510  94.7047750  80.4552390  29.2144350
  94.8252930  78.1294930  33.2195910  93.9308980  78.0961690  33.5589620
  95.3650480  78.3281720  33.9847160 108.5128860  74.9126650  35.1047660
 109.3899040  74.9210050  35.4881660 108.5249700  74.1757490  34.4940010
  93.4499080  78.0432200  20.7159480  92.5463160  78.3062400  20.5411140
  93.9339700  78.3143370  19.9359440  95.9926290  77.0997740  18.6253860
  96.7017990  76.6780960  18.1401140  95.2766230  77.1672970  17.9937210
  95.6400450  73.1537070  17.6656510  96.3628580  73.6946010  17.9837730
  95.9124970  72.8800490  16.7898050  95.3292640  72.4043260  27.5679130
  95.9768830  71.8540640  27.1274290  95.7494480  72.6586410  28.3894940
  95.0824640  72.5598930  30.3104450  94.7339460  73.0162750  31.0762630
  94.7512340  71.6656060  30.3926880 102.5949460  73.7510810  33.8323870
 102.5338350  74.3432640  34.5819280 103.5349840  73.6436770  33.6874130
 105.2324020  73.4080870  33.4716160 105.8464430  73.7260160  32.8097240
 105.7773580  72.9229460  34.0912020  95.7545280  72.0875130  33.5855220
  96.3028270  71.9063180  32.8221330  95.8200590  71.2969240  34.1211530
 105.9732060  71.9713010  29.7985450 105.0991900  72.3048120  29.5958380
 105.8642810  71.4986190  30.6237320 106.8804040  74.1783880  31.1827170
 106.5517400  73.3635640  30.8028900 107.8286340  74.1353690  31.0592860
 103.7206880  72.8882850  28.7378360 102.9378670  73.3628350  29.0175120
 103.4269810  71.9837680  28.6291540 108.2727950  73.5905950  26.7827450
 108.7136040  73.5351050  25.9349050 108.0035540  74.5063960  26.8537630
  95.0647290  73.1930330  21.2592080  95.8226650  73.3059210  20.6856110
  94.6024460  74.0299530  21.2135510 101.6061100  75.3069600  24.2494390
 100.7935610  74.9326490  23.9090270 102.1102740  74.5514680  24.5515580
 106.1086080  71.9712050  25.4877460 106.7115450  72.5432260  25.9625980
 105.3679070  72.5351490  25.2651360 109.2520680  72.3733610  20.7617740
 109.4471310  73.2717060  21.0285170 108.4650550  72.1420690  21.2550690
  97.4372440  73.7194380  19.7994050  97.9665200  72.9324180  19.6702000
  98.0700760  74.3985570  20.0329580  99.6310280  73.4569520  22.8539440
  99.0013020  72.7556830  23.0209570  99.0915420  74.2173650  22.6372600
  99.7565840  72.7353500  35.2891930  99.4750110  73.2387100  34.5252750
 100.1385540  71.9375250  34.9234060 106.3581300  72.1507080  35.8672400
 106.2446750  72.4701690  36.7623920 107.1751040  72.5519590  35.5709680
 105.2639450  80.1699550   6.2307140 105.1833500  79.2554160   5.9598850
 104.8503870  80.6666620   5.5246850 103.3957490  81.9478570   8.1116410
 102.6199590  81.4679010   8.4014980 104.0470420  81.2684220   7.9372570
  97.4123320  82.2598380   8.9892170  96.5808200  82.0047090   9.3888680
  98.0204300  82.3309150   9.7250090  95.8215270  77.2200270   2.7734560
  94.9331970  77.5616240   2.6714440  96.1056460  77.0200590   1.8815390
  93.7848280  79.8205920   8.6574260  94.3564390  79.0528120   8.6577900
  93.7849820  80.1194680   7.7480870 102.8366480  84.6235760   8.1186570
 102.7674760  83.6825700   7.9575700 103.5986340  84.7137170   8.6909140
  95.0273150  75.2290280  10.4443190  94.8475990  74.3316030  10.7245950
  94.6253230  75.7762150  11.1190140 103.8671650  77.4306140   8.3455500
 104.2436470  76.5578020   8.2329170 103.7691160  77.7664840   7.4545940
  97.9976660  75.8031770   3.8072940  98.1043410  76.7035500   4.1141700
  97.0869020  75.7549740   3.5167590 107.6495770  74.9256580   5.2783840
 108.4705390  74.4353150   5.3209320 107.6829850  75.5154240   6.0315680
  95.6459820  77.7250780   9.0525530  96.3269930  77.9889150   9.6712930
  95.3307870  76.8851650   9.3863540  99.8384390  78.7718140   8.1398120
 100.3462610  79.2699110   8.7803140 100.3697630  77.9953340   7.9637480
  98.1220490  73.4116700  12.4061540  98.1238930  73.9289090  11.6007440
  97.2924800  72.9346880  12.3831470 104.5091580  83.5236010   3.9051440
 103.8908850  83.9885460   3.3414160 105.0214830  84.2163490   4.3220950
  99.3723340  83.0511880  10.5835040  99.0392720  83.6780800  11.2256110
  99.5490020  83.5773760   9.8036710 107.8857250  76.8656960   8.0511380
 107.1812820  77.1541850   8.6314490 108.2469410  77.6757070   7.6910940
  97.8035820  75.1226660  10.4131990  98.1452630  75.9668710  10.1185860
  96.8651630  75.2710400  10.5297330 101.4863710  72.6108930   6.7376580
 101.7938690  72.0555820   6.0212080 100.5564410  72.7453390   6.5549570
 106.4364210  83.2306060  10.3566650 106.8533000  83.0166170   9.5220110
 107.1604030  83.4878850  10.9275270 103.8744470  80.6757760   3.4736700
 102.9473750  80.6095140   3.7025170 104.0269290  81.6137890   3.3591940
 107.9041760  82.2378060   3.9771950 107.2854180  81.8997610   3.3298250
 107.8866210  81.5937820   4.6851140 107.3468320  78.4162600  11.3937760
 106.9339500  79.2416310  11.6477750 106.6144270  77.8307640  11.2014120
  99.4801110  81.2022500   6.2556430  99.0758110  80.4899750   5.7602330
  99.5664230  80.8575740   7.1444470  99.9482810  84.8890060   8.4195640
  99.6511100  84.2835530   7.7403420 100.8982630  84.9267370   8.3085000
  98.1929730  77.9765710  10.0355470  98.7444320  78.0861050   9.2608720
  98.7073240  78.3503310  10.7510700  99.0401240  84.6271750  15.0703440
  98.1429770  84.8511720  15.3176840  99.0654110  84.7506690  14.1214840
  97.8672460  81.4985070  13.6460810  97.7280230  82.3707870  14.0148210
  96.9853820  81.1557880  13.5008750  96.1805740  80.0967480   3.7563080
  96.0603340  80.8229570   3.1444350  95.8706630  79.3270390   3.2790990
  93.8191110  83.2682620   9.5631720  93.8971530  83.4031390   8.6187440
  94.4332790  82.5598510   9.7559840  93.8750630  84.3096790  12.1026180
  94.0381670  83.8402150  11.2845550  94.3403080  83.8020350  12.7675020
  98.6469400  73.4402550   7.1386750  98.2037550  74.2212090   6.8071270
  99.2054390  73.7632440   7.8457690 102.9339210  76.3071070  12.7422070
 102.4718580  76.5154090  13.5542010 102.5317320  75.4930420  12.4392740
 107.9343720  77.5280020  13.8718730 107.0837310  77.2285770  14.1927800
 107.7745510  77.7722030  12.9602550 105.0293430  79.0281770  15.9717520
 105.3546840  78.1945520  15.6319750 105.8173760  79.5510290  16.1195850
 100.6845300  73.9849880   8.9976350 100.9817630  74.8912710   8.9168370
 101.2330860  73.4968660   8.3835920  98.4383620  78.5636120   4.8668000
  98.2124540  78.3473290   5.7714620  97.6576150  78.9964580   4.5213970
 105.6681380  78.5699490   3.4658650 105.0690270  79.2935290   3.2822270
 106.2160990  78.5076270   2.6835100 100.8782830  79.4621700  15.5328270
 100.7826430  78.5216430  15.3828670 101.7214810  79.6836770  15.1376340
 104.2746250  77.2063030   5.4961930 104.6675820  77.5235230   4.6830620
 104.6363100  76.3274910   5.6106450  96.0093370  75.8735370  13.6862050
  95.6156760  76.7210580  13.8934830  95.3211770  75.2361740  13.8770690
 102.5838420  75.9570340  16.7558790 101.8936740  75.7642540  17.3904880
 103.3270720  76.2404980  17.2883090  93.3110420  73.7963830   7.7192130
  93.0223470  74.3666690   8.4317110  94.0556180  73.3168280   8.0823360
 104.8601390  79.7968780   9.5912710 104.1282510  80.3055590   9.9402810
 104.4625730  78.9798760   9.2901490 101.2978780  76.4722980   7.9965200
 101.3014840  76.0312930   7.1469740 102.1929900  76.7940310   8.1037020
  97.1481160  76.3549470   6.9559410  96.8081210  76.8324700   7.7126460
  96.3858480  75.9014590   6.5960510 105.3227300  75.2502460   9.0035650
 105.3400040  75.7011110   9.8477500 105.0742880  74.3508100   9.2169090
 108.7498050  72.6634640  14.8422030 109.0743820  71.9324300  15.3680010
 108.7854560  72.3448280  13.9403020  95.4489610  83.6848220  14.2621990
  95.0644400  83.0441890  14.8604950  95.7601800  84.3884340  14.8316720
 101.5986750  80.5324760   9.7430610 101.9656880  80.0583330  10.4891950
 101.4091810  81.4066330  10.0838950  94.4627240  75.2768450   5.8724080
  94.1774160  74.9124120   6.7102700  94.4006100  74.5448910   5.2587220
  99.3886120  79.5733400  12.0614820  99.0843190  80.4525380  12.2865180
 100.3432580  79.6333190  12.0972260  97.9167910  83.7794390   2.6581670
  97.1430170  83.2392010   2.4980390  98.6462540  83.2601000   2.3199430
 108.6755890  82.7759750   8.4508060 109.3955010  83.2715040   8.0604170
 108.4737710  82.0977640   7.8061930 104.1365830  74.1697710   2.5937450
 103.3230440  73.6710880   2.5182760 103.9427780  75.0095960   2.1773800
 104.0574690  82.8468810  14.3377060 103.9912000  81.9264480  14.0834650
 103.4279830  82.9444250  15.0521700  97.9605310  83.4474770   6.2960480
  98.4783980  82.6443030   6.2417370  97.5089330  83.3853910   7.1377310
  95.4449850  80.4136140  13.2086180  95.0864790  81.0789990  13.7959520
  95.1504410  79.5819690  13.5798800  98.6462970  80.8720380  16.0925730
  98.3463110  81.0177560  15.1953550  99.4174210  80.3125670  15.9999120
 105.7302220  84.0356890   6.9333290 106.0826040  83.4385020   6.2734660
 104.8464550  83.7101120   7.1041540 101.1192710  81.8000610   3.9529060
 101.5755490  82.6105860   4.1789250 100.7680920  81.4823750   4.7847550
  97.0204490  72.1438260   4.4251580  96.8919120  72.1356160   5.3736500
  96.1966510  72.4821350   4.0742590  94.0198420  73.9029380  13.8858280
  93.3056940  74.1026300  14.4910890  94.4393460  73.1268950  14.2573080
 105.5137200  76.3951690  11.6359730 105.8818020  75.5746900  11.9639300
 104.6535400  76.4553580  12.0515380 108.8799230  75.3508630   2.4447290
 108.2512390  75.4554300   1.7305520 108.3851150  75.5705410   3.2341170
 100.8483260  77.6294580   3.8605170 100.1399410  78.0980920   4.3018780
 101.1327740  76.9716590   4.4950360 102.4739190  79.0491280  11.8597700
 102.9724440  79.5237100  12.5249550 102.6162140  78.1254800  12.0667730
 104.8798690  74.3545240   5.3000960 104.7566470  74.3731370   4.3510470
 105.8283250  74.4024180   5.4199360 107.9728060  80.5092420   6.1487450
 107.0318200  80.5242650   6.3235140 108.2872130  79.7228380   6.5947750
 105.2894080  85.0658420  16.6319830 104.6832240  85.0890020  15.8915580
 104.9848190  84.3341460  17.1687080  94.1727260  81.4452010  15.6280470
  94.6766280  80.8659290  16.1996700  93.4334680  81.7292240  16.1656840
 101.2265200  82.8523000  15.1615990 100.4610870  83.4208000  15.0770660
 101.4081160  82.5599210  14.2684220 108.3688550  84.5828330  15.7191010
 109.1098020  84.9204090  15.2158470 107.6061230  84.7520390  15.1660780
  96.2050340  79.5881600  16.5230540  96.2455680  79.2895470  17.4315770
  97.0595840  79.9889210  16.3638060  98.1456150  78.1673700  14.4905030
  97.6152610  77.6764650  13.8628370  98.8144220  78.5957900  13.9562960
 107.0434210  82.6343160  14.2546220 107.4575230  82.7888240  15.1036640
 106.1085210  82.7598380  14.4172000 107.5156380  79.9739320  16.2585370
 108.0977150  79.2191640  16.1705850 107.6918150  80.5046760  15.4816850
  98.6328450  75.1336070  14.5702320  98.5385320  74.5156820  13.8453190
  98.0525840  75.8602360  14.3432230 101.3989890  73.6909310  11.6029710
 100.9507190  73.7133570  10.7575260 100.7655090  73.2928330  12.2000010
 101.8049440  82.5863640  12.2242150 102.2237550  83.4296370  12.0518390
 100.8858070  82.7235680  11.9948930 104.1413340  80.3179820  13.6079990
 104.2609550  79.7220960  14.3474830 105.0007340  80.3549510  13.1881290
 106.4801240  80.8717010  12.1842500 105.9536460  81.3959630  11.5807640
 106.8232580  81.5044400  12.8152230 100.9082110  76.8601170  14.8655810
 101.4981800  76.5517020  15.5533630 100.0902350  76.3880920  15.0215710
 105.7275540  76.4766980  15.0988830 105.0391060  75.8148520  15.0338820
 106.4481560  76.0305250  15.5437290  94.2361000  80.8333270   5.9990660
  93.5809840  80.5644910   5.3550360  95.0738950  80.7237750   5.5492640
  95.2736930  81.2185840  10.5394000  95.6409970  81.1313240  11.4190020
  94.7047750  80.4552390  10.4400860  94.8252930  78.1294930  14.4452420
  93.9308980  78.0961690  14.7846130  95.3650480  78.3281720  15.2103670
 108.5128860  74.9126650  16.3304170 109.3899040  74.9210050  16.7138170
 108.5249700  74.1757490  15.7196520  95.3292640  72.4043260   8.7935640
  95.9768830  71.8540640   8.3530800  95.7494480  72.6586410   9.6151450
  95.0824640  72.5598930  11.5360960  94.7339460  73.0162750  12.3019140
  94.7512340  71.6656060  11.6183390 102.5949460  73.7510810  15.0580380
 102.5338350  74.3432640  15.8075790 103.5349840  73.6436770  14.9130640
 105.2324020  73.4080870  14.6972670 105.8464430  73.7260160  14.0353750
 105.7773580  72.9229460  15.3168530  95.7545280  72.0875130  14.8111730
  96.3028270  71.9063180  14.0477840  95.8200590  71.2969240  15.3468040
 105.9732060  71.9713010  11.0241960 105.0991900  72.3048120  10.8214890
 105.8642810  71.4986190  11.8493830 106.8804040  74.1783880  12.4083680
 106.5517400  73.3635640  12.0285410 107.8286340  74.1353690  12.2849370
 103.7206880  72.8882850   9.9634870 102.9378670  73.3628350  10.2431630
 103.4269810  71.9837680   9.8548050 108.2727950  73.5905950   8.0083960
 108.7136040  73.5351050   7.1605560 108.0035540  74.5063960   8.0794140
  95.0647290  73.1930330   2.4848590  95.8226650  73.3059210   1.9112620
  94.6024460  74.0299530   2.4392020 101.6061100  75.3069600   5.4750900
 100.7935610  74.9326490   5.1346780 102.1102740  74.5514680   5.7772090
 106.1086080  71.9712050   6.7133970 106.7115450  72.5432260   7.1882490
 105.3679070  72.5351490   6.4907870 109.2520680  72.3733610   1.9874250
 109.4471310  73.2717060   2.2541680 108.4650550  72.1420690   2.4807200
  99.6310280  73.4569520   4.0795950  99.0013020  72.7556830   4.2466080
  99.0915420  74.2173650   3.8629110  99.7565840  72.7353500  16.5148440
  99.4750110  73.2387100  15.7509260 100.1385540  71.9375250  16.1490570
 106.3581300  72.1507080  17.0928910 106.2446750  72.4701690  17.9880430
 107.1751040  72.5519590  16.7966190 105.2639450  61.3956060  81.3281100
 105.1833500  60.4810670  81.0572810 104.8503870  61.8923130  80.6220810
 103.3957490  63.1735080  83.2090370 102.6199590  62.6935520  83.4988940
 104.0470420  62.4940730  83.0346530  97.4123320  63.4854890  84.0866130
  96.5808200  63.2303600  84.4862640  98.0204300  63.5565660  84.8224050
 107.4164920  67.5795270  81.9889500 106.9546450  66.8082510  82.3176670
 108.2290470  67.6061340  82.4941950  97.3924580  67.5194980  84.2824150
  97.6952620  66.6292720  84.1034370  98.1368170  68.0765200  84.0546400
  95.8215270  58.4456780  77.8708520  94.9331970  58.7872750  77.7688400
  96.1056460  58.2457100  76.9789350  93.7848280  61.0462430  83.7548220
  94.3564390  60.2784630  83.7551860  93.7849820  61.3451190  82.8454830
 103.6428230  69.8653280  81.6093490 103.0239670  70.3210780  81.0387930
 104.4980010  70.0204740  81.2083190 102.8366480  65.8492270  83.2160530
 102.7674760  64.9082210  83.0549660 103.5986340  65.9393680  83.7883100
  95.0273150  56.4546790  85.5417150  94.8475990  55.5572540  85.8219910
  94.6253230  57.0018660  86.2164100 103.8671650  58.6562650  83.4429460
 104.2436470  57.7834530  83.3303130 103.7691160  58.9921350  82.5519900
  97.9976660  57.0288280  78.9046900  98.1043410  57.9292010  79.2115660
  97.0869020  56.9806250  78.6141550 107.6495770  56.1513090  80.3757800
 108.4705390  55.6609660  80.4183280 107.6829850  56.7410750  81.1289640
  95.6459820  58.9507290  84.1499490  96.3269930  59.2145660  84.7686890
  95.3307870  58.1108160  84.4837500  99.8384390  59.9974650  83.2372080
 100.3462610  60.4955620  83.8777100 100.3697630  59.2209850  83.0611440
  98.1220490  54.6373210  87.5035500  98.1238930  55.1545600  86.6981400
  97.2924800  54.1603390  87.4805430 104.5091580  64.7492520  79.0025400
 103.8908850  65.2141970  78.4388120 105.0214830  65.4420000  79.4194910
  99.3723340  64.2768390  85.6809000  99.0392720  64.9037310  86.3230070
  99.5490020  64.8030270  84.9010670 107.8857250  58.0913470  83.1485340
 107.1812820  58.3798360  83.7288450 108.2469410  58.9013580  82.7884900
  97.8035820  56.3483170  85.5105950  98.1452630  57.1925220  85.2159820
  96.8651630  56.4966910  85.6271290  98.5842440  66.2449190  87.4958180
  99.2016440  66.9200270  87.2142630  97.7235560  66.6537170  87.4045680
  93.8774780  65.4349050  76.3765030  93.5002760  65.9236150  75.6449930
  94.1347850  66.1074330  77.0071560 101.4863710  53.8365440  81.8350540
 101.7938690  53.2812330  81.1186040 100.5564410  53.9709900  81.6523530
 107.0378770  69.5532730  84.1258000 107.0505930  69.1495020  83.2580260
 106.4853990  70.3280020  84.0219430 108.3324190  66.2748950  79.2148170
 108.2220520  65.3323280  79.3397590 108.3292440  66.6364590  80.1010930
 106.4364210  64.4562570  85.4540610 106.8533000  64.2422680  84.6194070
 107.1604030  64.7135360  86.0249230 103.8744470  61.9014270  78.5710660
 102.9473750  61.8351650  78.7999130 104.0269290  62.8394400  78.4565900
 103.8613550  58.1731270  75.5677820 102.9217220  58.3345230  75.6530280
 104.1796810  58.8916950  75.0213810 107.9041760  63.4634570  79.0745910
 107.2854180  63.1254120  78.4272210 107.8866210  62.8194330  79.7825100
 107.3468320  59.6419110  86.4911720 106.9339500  60.4672820  86.7451710
 106.6144270  59.0564150  86.2988080  99.4801110  62.4279010  81.3530390
  99.0758110  61.7156260  80.8576290  99.5664230  62.0832250  82.2418430
  99.9482810  66.1146570  83.5169600  99.6511100  65.5092040  82.8377380
 100.8982630  66.1523880  83.4058960  98.1929730  59.2022220  85.1329430
  98.7444320  59.3117560  84.3582680  98.7073240  59.5759820  85.8484660
 108.0368420  69.6878440  87.1792700 107.5598980  70.4950630  86.9865310
 107.3530210  69.0356770  87.3318910 106.0806460  62.7021380  76.0818660
 106.5199740  61.8643810  75.9356480 106.7934880  63.3350780  76.1682800
  97.8672460  62.7241580  88.7434770  97.7280230  63.5964380  89.1122170
  96.9853820  62.3814390  88.5982710 104.1901840  67.6417450  80.0499900
 104.6297750  68.3841780  79.6355290 104.1288730  67.8844020  80.9738860
  96.1805740  61.3223990  78.8537040  96.0603340  62.0486080  78.2418310
  95.8706630  60.5526900  78.3764950  93.8191110  64.4939130  84.6605680
  93.8971530  64.6287900  83.7161400  94.4332790  63.7855020  84.8533800
  95.0638740  66.1939320  81.0711860  94.6566820  66.3353910  80.2165460
  95.9551750  65.9099480  80.8683070 104.8817620  70.3431230  87.9778910
 105.3962290  70.2539240  88.7801340 104.0386700  70.6890930  88.2706820
 106.8572020  70.6286570  77.4062910 106.6973160  70.3389510  78.3044740
 106.6918730  69.8526700  76.8708140  99.3360400  70.4085100  79.1834530
  99.1602880  69.4920640  78.9702330  98.4816140  70.7672390  79.4232330
 106.5598150  68.1374130  75.9660910 105.8663310  68.1351420  75.3063190
 107.3021010  67.7133450  75.5355080 106.1248080  69.7636840  80.0409400
 106.5805030  68.9826220  80.3548020 106.4640600  70.4743660  80.5850580
  93.8750630  65.5353300  87.2000140  94.0381670  65.0658660  86.3819510
  94.3403080  65.0276860  87.8648980  98.6469400  54.6659060  82.2360710
  98.2037550  55.4468600  81.9045230  99.2054390  54.9888950  82.9431650
 102.9339210  57.5327580  87.8396030 102.4718580  57.7410600  88.6515970
 102.5317320  56.7186930  87.5366700 101.7628220  54.2869760  77.1166540
 101.1382400  54.2829630  77.8419850 101.6758340  53.4200720  76.7202510
 100.6845300  55.2106390  84.0950310 100.9817630  56.1169220  84.0142330
 101.2330860  54.7225170  83.4809880  98.4383620  59.7892630  79.9641960
  98.2124540  59.5729800  80.8688580  97.6576150  60.2221090  79.6187930
 105.6681380  59.7956000  78.5632610 105.0690270  60.5191800  78.3796230
 106.2160990  59.7332780  77.7809060 104.2746250  58.4319540  80.5935890
 104.6675820  58.7491740  79.7804580 104.6363100  57.5531420  80.7080410
  96.0093370  57.0991880  88.7836010  95.6156760  57.9467090  88.9908790
  95.3211770  56.4618250  88.9744650  93.3110420  55.0220340  82.8166090
  93.0223470  55.5923200  83.5291070  94.0556180  54.5424790  83.1797320
  93.4980650  58.9640460  74.0268810  93.4155320  59.9071220  74.1683800
  93.1463710  58.8215370  73.1481160 104.8601390  61.0225290  84.6886670
 104.1282510  61.5312100  85.0376770 104.4625730  60.2055270  84.3875450
 101.2978780  57.6979490  83.0939160 101.3014840  57.2569440  82.2443700
 102.1929900  58.0196820  83.2010980  97.1481160  57.5805980  82.0533370
  96.8081210  58.0581210  82.8100420  96.3858480  57.1271100  81.6934470
 101.3598930  58.6991570  76.0845920 101.4811750  58.6578050  77.0331740
 100.9747440  59.5615720  75.9292650 105.3227300  56.4758970  84.1009610
 105.3400040  56.9267620  84.9451460 105.0742880  55.5764610  84.3143050
 100.3720430  61.0092710  75.4829220  99.8037330  60.5610960  74.8565130
 101.0809430  61.3685490  74.9494370 101.5986750  61.7581270  84.8404570
 101.9656880  61.2839840  85.5865910 101.4091810  62.6322840  85.1812910
  94.4627240  56.5024960  80.9698040  94.1774160  56.1380630  81.8076660
  94.4006100  55.7705420  80.3561180  99.3886120  60.7989910  87.1588780
  99.0843190  61.6781890  87.3839140 100.3432580  60.8589700  87.1946220
  97.9167910  65.0050900  77.7555630  97.1430170  64.4648520  77.5954350
  98.6462540  64.4857510  77.4173390 108.6755890  64.0016260  83.5482020
 109.3955010  64.4971550  83.1578130 108.4737710  63.3234150  82.9035890
 104.1365830  55.3954220  77.6911410 103.3230440  54.8967390  77.6156720
 103.9427780  56.2352470  77.2747760 106.8514220  59.7673870  75.9873570
 107.7393840  60.0791100  75.8124910 106.8219310  58.8946120  75.5954150
  97.9605310  64.6731280  81.3934440  98.4783980  63.8699540  81.3391330
  97.5089330  64.6110420  82.2351270 102.8474810  65.9397560  76.6661740
 103.1890510  66.6839790  76.1705060 102.0187520  66.2528680  77.0286570
  95.4449850  61.6392650  88.3060140  95.0864790  62.3046500  88.8933480
  95.1504410  60.8076200  88.6772760 105.7302220  65.2613400  82.0307250
 106.0826040  64.6641530  81.3708620 104.8464550  64.9357630  82.2015500
 101.8165500  66.0211090  79.4377660 102.5036630  66.5680300  79.8185250
 101.0297920  66.5651820  79.4727270  93.9557900  61.6383910  74.9294740
  94.8252750  61.9208710  75.2130660  93.4648220  62.4519780  74.8143550
 101.1192710  63.0257120  79.0503020 101.5755490  63.8362370  79.2763210
 100.7680920  62.7080260  79.8821510 103.4225320  68.5363460  86.2795320
 104.0667540  68.7422840  86.9568740 103.7854760  67.7751860  85.8266170
  97.0204490  53.3694770  79.5225540  96.8919120  53.3612670  80.4710460
  96.1966510  53.7077860  79.1716550 104.6957400  66.5395810  84.9972770
 105.3379630  65.8388970  85.1104940 105.2206750  67.3194250  84.8169660
 108.5413120  66.8244430  74.7211910 108.3150700  66.1074870  75.3136550
 108.1509320  66.5756870  73.8833660 106.4695020  67.3390710  88.2008830
 106.8051260  67.9257400  88.8786750 105.5495360  67.2083420  88.4306620
  94.3229150  70.8511290  75.4956370  94.6826790  71.4500630  74.8413640
  94.1821490  71.3971180  76.2691400 108.1229370  64.7416370  76.3826070
 107.8351070  65.2029060  77.1703950 108.9181540  64.2814140  76.6510290
 100.3397770  68.2342490  76.3130040 100.3307870  68.9672180  75.6974550
  99.4196130  67.9874070  76.4057000  95.9404410  63.4557380  77.0576800
  95.3332360  64.1956280  77.0672100  96.4153760  63.5456740  76.2315000
 105.5137200  57.6208200  86.7333690 105.8818020  56.8003410  87.0613260
 104.6535400  57.6810090  87.1489340 108.8799230  56.5765140  77.5421250
 108.2512390  56.6810810  76.8279480 108.3851150  56.7961920  78.3315130
 103.3257370  68.2970730  74.9755230 103.4269350  68.0934720  74.0457210
 102.4259110  68.0429010  75.1803010 100.8483260  58.8551090  78.9579130
 100.1399410  59.3237430  79.3992740 101.1327740  58.1973100  79.5924320
 102.4739190  60.2747790  86.9571660 102.9724440  60.7493610  87.6223510
 102.6162140  59.3511310  87.1641690 104.8798690  55.5801750  80.3974920
 104.7566470  55.5987880  79.4484430 105.8283250  55.6280690  80.5173320
 101.9675480  70.8157050  79.6702900 102.2216980  70.7778440  78.7482270
 101.0187960  70.6890380  79.6631150  99.0518280  57.1636170  76.3329840
  99.9008810  57.6006320  76.2670030  98.6849550  57.4756430  77.1601900
 107.9728060  61.7348930  81.2461410 107.0318200  61.7499160  81.4209100
 108.2872130  60.9484890  81.6921710  97.9509700  63.4168530  74.8065370
  98.7172970  63.3049890  75.3690800  98.0284390  62.7206500  74.1542140
  96.6456460  60.8493600  75.4898260  96.7260050  59.9021110  75.6015660
  97.5376210  61.1800480  75.5958920  97.4471170  70.9988990  82.5932800
  98.1833650  70.4504450  82.8641370  97.8312090  71.8645000  82.4538790
  94.3316650  67.0662560  78.4674310  93.4056430  67.3083700  78.4579720
  94.7973080  67.8936820  78.3459060 100.5573480  70.1719300  74.4158370
 101.3502090  70.4608130  73.9640160 100.0377830  69.7411470  73.7370850
 101.0750880  65.3922710  74.2800720 100.9701520  64.7775060  75.0062100
 100.9075100  64.8688600  73.4963730 104.3153610  64.4542740  74.8842710
 103.7663710  64.9012040  75.5285450 104.9372870  63.9491990  75.4080380
  99.9828730  63.4133660  76.7808010 100.4045150  63.2473530  77.6239400
 100.1079570  62.6033890  76.2863150 102.4956370  62.4371270  74.0285110
 103.0162030  61.7220290  73.6626260 103.1424770  63.0757140  74.3285620
 101.3989890  54.9165820  86.7003670 100.9507190  54.9390080  85.8549220
 100.7655090  54.5184840  87.2973970 101.8049440  63.8120150  87.3216110
 102.2237550  64.6552880  87.1492350 100.8858070  63.9492190  87.0922890
 106.4801240  62.0973520  87.2816460 105.9536460  62.6216140  86.6781600
 106.8232580  62.7300910  87.9126190  98.8787630  59.4866890  73.7266170
  98.6776690  58.6234250  74.0879510  98.7079680  59.4000250  72.7887770
  99.6556860  70.1173160  88.4373840  99.1177950  70.8419220  88.1182540
  99.9090820  69.6403500  87.6471180 106.3575940  54.2975120  76.2553050
 106.6378230  53.4543020  76.6112470 105.5841670  54.5298230  76.7691800
  97.6770430  56.5867510  73.7144050  97.9796330  56.5934940  72.8063200
  98.4165020  56.2365370  74.2111710 102.5119070  71.3524370  88.6960490
 102.4377770  72.2559510  89.0032860 101.6097910  71.0336270  88.6682560
 100.8955360  55.5302130  74.7000250 100.5477360  54.8526120  74.1202700
 101.0968130  55.0691640  75.5143640 103.0604400  70.5182880  76.3186850
 103.9555190  70.8567850  76.3405610 103.0922030  69.7962290  75.6911130
  96.7000560  65.8909930  74.5473850  97.1375430  66.4339600  75.2031430
  97.1848290  65.0656880  74.5570190  93.9146360  68.6798960  81.9994110
  94.2449370  67.8120020  81.7672750  94.3437360  68.8857480  82.8299070
  98.5108280  67.0107970  79.6596080  98.2103820  66.8872940  80.5599990
  98.4045770  66.1516560  79.2511810  94.4036570  69.5469550  84.7375740
  93.9667560  69.7270350  85.5699890  94.9714250  70.3044170  84.5957460
  94.2361000  62.0589780  81.0964620  93.5809840  61.7901420  80.4524320
  95.0738950  61.9494260  80.6466600 108.7250390  65.7738530  87.1229210
 107.9110230  66.2035690  87.3855000 109.1324590  66.3856940  86.5098260
 107.1851440  56.8531070  75.3183110 107.6036320  56.6662050  74.4779770
 106.8787500  56.0010120  75.6286040  95.2736930  62.4442350  85.6367960
  95.6409970  62.3569750  86.5163980  94.7047750  61.6808900  85.5374820
  93.4499080  59.2688710  77.0389950  92.5463160  59.5318910  76.8641610
  93.9339700  59.5399880  76.2589910  95.9926290  58.3254250  74.9484330
  96.7017990  57.9037470  74.4631610  95.2766230  58.3929480  74.3167680
  95.6400450  54.3793580  73.9886980  96.3628580  54.9202520  74.3068200
  95.9124970  54.1057000  73.1128520  95.3292640  53.6299770  83.8909600
  95.9768830  53.0797150  83.4504760  95.7494480  53.8842920  84.7125410
 108.7826440  70.5257130  80.6497480 109.3785510  70.2041700  79.9731900
 109.0404590  70.0528950  81.4410750  95.0824640  53.7855440  86.6334920
  94.7339460  54.2419260  87.3993100  94.7512340  52.8912570  86.7157350
 100.3895040  68.5134630  86.3997830 100.1486400  68.7809190  85.5128350
 101.3297680  68.6840360  86.4548690  96.5277040  69.9037290  87.9185890
  95.9337360  69.7721990  88.6575930  96.5200880  69.0675430  87.4527990
 105.9732060  53.1969520  86.1215920 105.0991900  53.5304630  85.9188850
 105.8642810  52.7242700  86.9467790 106.8804040  55.4040390  87.5057640
 106.5517400  54.5892150  87.1259370 107.8286340  55.3610200  87.3823330
 109.3338650  71.1752430  84.4795210 108.8741620  71.9268240  84.1053230
 108.7051110  70.4558900  84.4210010  96.1589270  67.2695670  86.8693930
  95.4323330  66.6500960  86.8019880  96.2198420  67.6636280  85.9992010
  99.7634370  69.4840670  83.6543340 100.2799390  68.8728030  83.1291600
 100.4131750  69.9869450  84.1454350 102.5029870  70.3749160  84.4812320
 102.7907680  70.1203460  83.6045330 103.0153090  69.8226520  85.0717890
 103.7206880  54.1139360  85.0608830 102.9378670  54.5884860  85.3405590
 103.4269810  53.2094190  84.9522010 108.2727950  54.8162460  83.1057920
 108.7136040  54.7607560  82.2579520 108.0035540  55.7320470  83.1768100
  94.4419270  70.5870060  80.0790690  94.2741310  69.9540740  80.7772580
  93.5753780  70.7929460  79.7284880  95.0647290  54.4186840  77.5822550
  95.8226650  54.5315720  77.0086580  94.6024460  55.2556040  77.5365980
 101.6061100  56.5326110  80.5724860 100.7935610  56.1583000  80.2320740
 102.1102740  55.7771190  80.8746050 106.1086080  53.1968560  81.8107930
 106.7115450  53.7688770  82.2856450 105.3679070  53.7608000  81.5881830
 109.2520680  53.5990120  77.0848210 109.4471310  54.4973570  77.3515640
 108.4650550  53.3677200  77.5781160  96.0481970  69.2803290  77.5240830
  95.5229590  69.6611320  76.8202790  95.9726550  69.9054060  78.2450540
  97.4372440  54.9450890  76.1224520  97.9665200  54.1580690  75.9932470
  98.0700760  55.6242080  76.3560050  99.6310280  54.6826030  79.1769910
  99.0013020  53.9813340  79.3440040  99.0915420  55.4430160  78.9603070
  98.6474940  71.2285670  76.3990080  99.3793760  70.9444950  75.8513970
  98.9068610  70.9898950  77.2889460  97.8089730  67.3450400  76.4036410
  97.1798610  67.8135500  76.9522240  97.9237560  66.4999620  76.8382600
 105.2639450  61.3956060  62.5537610 105.1833500  60.4810670  62.2829320
 104.8503870  61.8923130  61.8477320 103.3957490  63.1735080  64.4346880
 102.6199590  62.6935520  64.7245450 104.0470420  62.4940730  64.2603040
  97.4123320  63.4854890  65.3122640  96.5808200  63.2303600  65.7119150
  98.0204300  63.5565660  66.0480560 107.4164920  67.5795270  63.2146010
 106.9546450  66.8082510  63.5433180 108.2290470  67.6061340  63.7198460
  97.3924580  67.5194980  65.5080660  97.6952620  66.6292720  65.3290880
  98.1368170  68.0765200  65.2802910  95.8215270  58.4456780  59.0965030
  94.9331970  58.7872750  58.9944910  96.1056460  58.2457100  58.2045860
  93.7848280  61.0462430  64.9804730  94.3564390  60.2784630  64.9808370
  93.7849820  61.3451190  64.0711340 103.6428230  69.8653280  62.8350000
 103.0239670  70.3210780  62.2644440 104.4980010  70.0204740  62.4339700
 102.8366480  65.8492270  64.4417040 102.7674760  64.9082210  64.2806170
 103.5986340  65.9393680  65.0139610  95.0273150  56.4546790  66.7673660
  94.8475990  55.5572540  67.0476420  94.6253230  57.0018660  67.4420610
 103.8671650  58.6562650  64.6685970 104.2436470  57.7834530  64.5559640
 103.7691160  58.9921350  63.7776410  97.9976660  57.0288280  60.1303410
  98.1043410  57.9292010  60.4372170  97.0869020  56.9806250  59.8398060
 107.6495770  56.1513090  61.6014310 108.4705390  55.6609660  61.6439790
 107.6829850  56.7410750  62.3546150  95.6459820  58.9507290  65.3756000
  96.3269930  59.2145660  65.9943400  95.3307870  58.1108160  65.7094010
  99.8384390  59.9974650  64.4628590 100.3462610  60.4955620  65.1033610
 100.3697630  59.2209850  64.2867950  98.1220490  54.6373210  68.7292010
  98.1238930  55.1545600  67.9237910  97.2924800  54.1603390  68.7061940
 104.5091580  64.7492520  60.2281910 103.8908850  65.2141970  59.6644630
 105.0214830  65.4420000  60.6451420  99.3723340  64.2768390  66.9065510
  99.0392720  64.9037310  67.5486580  99.5490020  64.8030270  66.1267180
 107.8857250  58.0913470  64.3741850 107.1812820  58.3798360  64.9544960
 108.2469410  58.9013580  64.0141410  97.8035820  56.3483170  66.7362460
  98.1452630  57.1925220  66.4416330  96.8651630  56.4966910  66.8527800
  98.5842440  66.2449190  68.7214690  99.2016440  66.9200270  68.4399140
  97.7235560  66.6537170  68.6302190  93.8774780  65.4349050  57.6021540
  93.5002760  65.9236150  56.8706440  94.1347850  66.1074330  58.2328070
 101.4863710  53.8365440  63.0607050 101.7938690  53.2812330  62.3442550
 100.5564410  53.9709900  62.8780040 107.0378770  69.5532730  65.3514510
 107.0505930  69.1495020  64.4836770 106.4853990  70.3280020  65.2475940
 108.3324190  66.2748950  60.4404680 108.2220520  65.3323280  60.5654100
 108.3292440  66.6364590  61.3267440 106.4364210  64.4562570  66.6797120
 106.8533000  64.2422680  65.8450580 107.1604030  64.7135360  67.2505740
 103.8744470  61.9014270  59.7967170 102.9473750  61.8351650  60.0255640
 104.0269290  62.8394400  59.6822410 103.8613550  58.1731270  56.7934330
 102.9217220  58.3345230  56.8786790 104.1796810  58.8916950  56.2470320
 107.9041760  63.4634570  60.3002420 107.2854180  63.1254120  59.6528720
 107.8866210  62.8194330  61.0081610 107.3468320  59.6419110  67.7168230
 106.9339500  60.4672820  67.9708220 106.6144270  59.0564150  67.5244590
  99.4801110  62.4279010  62.5786900  99.0758110  61.7156260  62.0832800
  99.5664230  62.0832250  63.4674940  99.9482810  66.1146570  64.7426110
  99.6511100  65.5092040  64.0633890 100.8982630  66.1523880  64.6315470
  98.1929730  59.2022220  66.3585940  98.7444320  59.3117560  65.5839190
  98.7073240  59.5759820  67.0741170 108.0368420  69.6878440  68.4049210
 107.5598980  70.4950630  68.2121820 107.3530210  69.0356770  68.5575420
  99.0401240  65.8528260  71.3933910  98.1429770  66.0768230  71.6407310
  99.0654110  65.9763200  70.4445310 106.0806460  62.7021380  57.3075170
 106.5199740  61.8643810  57.1612990 106.7934880  63.3350780  57.3939310
  97.8672460  62.7241580  69.9691280  97.7280230  63.5964380  70.3378680
  96.9853820  62.3814390  69.8239220 104.1901840  67.6417450  61.2756410
 104.6297750  68.3841780  60.8611800 104.1288730  67.8844020  62.1995370
  99.6652810  68.6663280  72.1776430  99.6368240  69.0706230  71.3104860
  99.5017780  67.7373640  72.0148030  96.1805740  61.3223990  60.0793550
  96.0603340  62.0486080  59.4674820  95.8706630  60.5526900  59.6021460
  93.8191110  64.4939130  65.8862190  93.8971530  64.6287900  64.9417910
  94.4332790  63.7855020  66.0790310  95.0638740  66.1939320  62.2968370
  94.6566820  66.3353910  61.4421970  95.9551750  65.9099480  62.0939580
 104.8817620  70.3431230  69.2035420 105.3962290  70.2539240  70.0057850
 104.0386700  70.6890930  69.4963330 106.8572020  70.6286570  58.6319420
 106.6973160  70.3389510  59.5301250 106.6918730  69.8526700  58.0964650
  99.3360400  70.4085100  60.4091040  99.1602880  69.4920640  60.1958840
  98.4816140  70.7672390  60.6488840 106.5598150  68.1374130  57.1917420
 105.8663310  68.1351420  56.5319700 107.3021010  67.7133450  56.7611590
 106.1248080  69.7636840  61.2665910 106.5805030  68.9826220  61.5804530
 106.4640600  70.4743660  61.8107090  93.8750630  65.5353300  68.4256650
  94.0381670  65.0658660  67.6076020  94.3403080  65.0276860  69.0905490
  98.6469400  54.6659060  63.4617220  98.2037550  55.4468600  63.1301740
  99.2054390  54.9888950  64.1688160 102.9339210  57.5327580  69.0652540
 102.4718580  57.7410600  69.8772480 102.5317320  56.7186930  68.7623210
 107.9343720  58.7536530  70.1949200 107.0837310  58.4542280  70.5158270
 107.7745510  58.9978540  69.2833020 105.0293430  60.2538280  72.2947990
 105.3546840  59.4202030  71.9550220 105.8173760  60.7766800  72.4426320
 101.7628220  54.2869760  58.3423050 101.1382400  54.2829630  59.0676360
 101.6758340  53.4200720  57.9459020 100.6845300  55.2106390  65.3206820
 100.9817630  56.1169220  65.2398840 101.2330860  54.7225170  64.7066390
  98.4383620  59.7892630  61.1898470  98.2124540  59.5729800  62.0945090
  97.6576150  60.2221090  60.8444440 105.6681380  59.7956000  59.7889120
 105.0690270  60.5191800  59.6052740 106.2160990  59.7332780  59.0065570
 100.8782830  60.6878210  71.8558740 100.7826430  59.7472940  71.7059140
 101.7214810  60.9093280  71.4606810 104.2746250  58.4319540  61.8192400
 104.6675820  58.7491740  61.0061090 104.6363100  57.5531420  61.9336920
  96.0093370  57.0991880  70.0092520  95.6156760  57.9467090  70.2165300
  95.3211770  56.4618250  70.2001160 102.5838420  57.1826850  73.0789260
 101.8936740  56.9899050  73.7135350 103.3270720  57.4661490  73.6113560
  93.3110420  55.0220340  64.0422600  93.0223470  55.5923200  64.7547580
  94.0556180  54.5424790  64.4053830  93.4980650  58.9640460  55.2525320
  93.4155320  59.9071220  55.3940310  93.1463710  58.8215370  54.3737670
 104.8601390  61.0225290  65.9143180 104.1282510  61.5312100  66.2633280
 104.4625730  60.2055270  65.6131960 101.2978780  57.6979490  64.3195670
 101.3014840  57.2569440  63.4700210 102.1929900  58.0196820  64.4267490
  97.1481160  57.5805980  63.2789880  96.8081210  58.0581210  64.0356930
  96.3858480  57.1271100  62.9190980 101.3598930  58.6991570  57.3102430
 101.4811750  58.6578050  58.2588250 100.9747440  59.5615720  57.1549160
 105.3227300  56.4758970  65.3266120 105.3400040  56.9267620  66.1707970
 105.0742880  55.5764610  65.5399560 100.3720430  61.0092710  56.7085730
  99.8037330  60.5610960  56.0821640 101.0809430  61.3685490  56.1750880
 108.7498050  53.8891150  71.1652500 109.0743820  53.1580810  71.6910480
 108.7854560  53.5704790  70.2633490  95.4489610  64.9104730  70.5852460
  95.0644400  64.2698400  71.1835420  95.7601800  65.6140850  71.1547190
 101.5986750  61.7581270  66.0661080 101.9656880  61.2839840  66.8122420
 101.4091810  62.6322840  66.4069420  94.4627240  56.5024960  62.1954550
  94.1774160  56.1380630  63.0333170  94.4006100  55.7705420  61.5817690
  99.3886120  60.7989910  68.3845290  99.0843190  61.6781890  68.6095650
 100.3432580  60.8589700  68.4202730  97.9167910  65.0050900  58.9812140
  97.1430170  64.4648520  58.8210860  98.6462540  64.4857510  58.6429900
 108.6755890  64.0016260  64.7738530 109.3955010  64.4971550  64.3834640
 108.4737710  63.3234150  64.1292400 104.1365830  55.3954220  58.9167920
 103.3230440  54.8967390  58.8413230 103.9427780  56.2352470  58.5004270
 104.0574690  64.0725320  70.6607530 103.9912000  63.1520990  70.4065120
 103.4279830  64.1700760  71.3752170 106.8514220  59.7673870  57.2130080
 107.7393840  60.0791100  57.0381420 106.8219310  58.8946120  56.8210660
  97.9605310  64.6731280  62.6190950  98.4783980  63.8699540  62.5647840
  97.5089330  64.6110420  63.4607780 102.8474810  65.9397560  57.8918250
 103.1890510  66.6839790  57.3961570 102.0187520  66.2528680  58.2543080
  95.4449850  61.6392650  69.5316650  95.0864790  62.3046500  70.1189990
  95.1504410  60.8076200  69.9029270  98.6462970  62.0976890  72.4156200
  98.3463110  62.2434070  71.5184020  99.4174210  61.5382180  72.3229590
 103.9891420  66.8945890  70.4111330 104.0035960  65.9626850  70.1930240
 103.2816520  66.9805650  71.0501100 105.7302220  65.2613400  63.2563760
 106.0826040  64.6641530  62.5965130 104.8464550  64.9357630  63.4272010
 101.8165500  66.0211090  60.6634170 102.5036630  66.5680300  61.0441760
 101.0297920  66.5651820  60.6983780  93.9557900  61.6383910  56.1551250
  94.8252750  61.9208710  56.4387170  93.4648220  62.4519780  56.0400060
 101.1192710  63.0257120  60.2759530 101.5755490  63.8362370  60.5019720
 100.7680920  62.7080260  61.1078020 103.4225320  68.5363460  67.5051830
 104.0667540  68.7422840  68.1825250 103.7854760  67.7751860  67.0522680
  97.0204490  53.3694770  60.7482050  96.8919120  53.3612670  61.6966970
  96.1966510  53.7077860  60.3973060 104.6957400  66.5395810  66.2229280
 105.3379630  65.8388970  66.3361450 105.2206750  67.3194250  66.0426170
 108.5413120  66.8244430  55.9468420 108.3150700  66.1074870  56.5393060
 108.1509320  66.5756870  55.1090170 106.4695020  67.3390710  69.4265340
 106.8051260  67.9257400  70.1043260 105.5495360  67.2083420  69.6563130
  94.3229150  70.8511290  56.7212880  94.6826790  71.4500630  56.0670150
  94.1821490  71.3971180  57.4947910  94.0198420  55.1285890  70.2088750
  93.3056940  55.3282810  70.8141360  94.4393460  54.3525460  70.5803550
 108.1229370  64.7416370  57.6082580 107.8351070  65.2029060  58.3960460
 108.9181540  64.2814140  57.8766800  94.3071010  69.1166150  71.1955280
  94.4162130  68.1760890  71.0550670  93.6551570  69.3820900  70.5469010
 102.2983600  67.3882040  72.5953400 101.9780470  66.6691280  73.1399090
 101.6241960  68.0637110  72.6689460 100.3397770  68.2342490  57.5386550
 100.3307870  68.9672180  56.9231060  99.4196130  67.9874070  57.6313510
  95.9404410  63.4557380  58.2833310  95.3332360  64.1956280  58.2928610
  96.4153760  63.5456740  57.4571510 105.5137200  57.6208200  67.9590200
 105.8818020  56.8003410  68.2869770 104.6535400  57.6810090  68.3745850
 108.8799230  56.5765140  58.7677760 108.2512390  56.6810810  58.0535990
 108.3851150  56.7961920  59.5571640 103.3257370  68.2970730  56.2011740
 103.4269350  68.0934720  55.2713720 102.4259110  68.0429010  56.4059520
 100.8483260  58.8551090  60.1835640 100.1399410  59.3237430  60.6249250
 101.1327740  58.1973100  60.8180830 102.4739190  60.2747790  68.1828170
 102.9724440  60.7493610  68.8480020 102.6162140  59.3511310  68.3898200
 104.8798690  55.5801750  61.6231430 104.7566470  55.5987880  60.6740940
 105.8283250  55.6280690  61.7429830 101.9675480  70.8157050  60.8959410
 102.2216980  70.7778440  59.9738780 101.0187960  70.6890380  60.8887660
  99.0518280  57.1636170  57.5586350  99.9008810  57.6006320  57.4926540
  98.6849550  57.4756430  58.3858410 107.9728060  61.7348930  62.4717920
 107.0318200  61.7499160  62.6465610 108.2872130  60.9484890  62.9178220
  97.9509700  63.4168530  56.0321880  98.7172970  63.3049890  56.5947310
  98.0284390  62.7206500  55.3798650  96.6456460  60.8493600  56.7154770
  96.7260050  59.9021110  56.8272170  97.5376210  61.1800480  56.8215430
  97.4471170  70.9988990  63.8189310  98.1833650  70.4504450  64.0897880
  97.8312090  71.8645000  63.6795300  94.3316650  67.0662560  59.6930820
  93.4056430  67.3083700  59.6836230  94.7973080  67.8936820  59.5715570
  96.4529450  70.1835060  73.0074890  97.2542180  70.5047110  73.4210290
  95.9381270  69.8230640  73.7294800 100.5573480  70.1719300  55.6414880
 101.3502090  70.4608130  55.1896670 100.0377830  69.7411470  54.9627360
 105.2894080  66.2914930  72.9550300 104.6832240  66.3146530  72.2146050
 104.9848190  65.5597970  73.4917550 106.7194450  70.0195220  71.5659710
 107.6716200  69.9353240  71.5159950 106.5722670  70.6836930  72.2393500
  94.1727260  62.6708520  71.9510940  94.6766280  62.0915800  72.5227170
  93.4334680  62.9548750  72.4887310 101.0750880  65.3922710  55.5057230
 100.9701520  64.7775060  56.2318610 100.9075100  64.8688600  54.7220240
 101.2265200  64.0779510  71.4846460 100.4610870  64.6464510  71.4001130
 101.4081160  63.7855720  70.5914690 104.3153610  64.4542740  56.1099220
 103.7663710  64.9012040  56.7541960 104.9372870  63.9491990  56.6336890
 108.3688550  65.8084840  72.0421480 109.1098020  66.1460600  71.5388940
 107.6061230  65.9776900  71.4891250  96.2050340  60.8138110  72.8461010
  96.2455680  60.5151980  73.7546240  97.0595840  61.2145720  72.6868530
  99.9828730  63.4133660  58.0064520 100.4045150  63.2473530  58.8495910
 100.1079570  62.6033890  57.5119660  98.1456150  59.3930210  70.8135500
  97.6152610  58.9021160  70.1858840  98.8144220  59.8214410  70.2793430
 102.4956370  62.4371270  55.2541620 103.0162030  61.7220290  54.8882770
 103.1424770  63.0757140  55.5542130 107.0434210  63.8599670  70.5776690
 107.4575230  64.0144750  71.4267110 106.1085210  63.9854890  70.7402470
 107.5156380  61.1995830  72.5815840 108.0977150  60.4448150  72.4936320
 107.6918150  61.7303270  71.8047320  98.6328450  56.3592580  70.8932790
  98.5385320  55.7413330  70.1683660  98.0525840  57.0858870  70.6662700
 101.3989890  54.9165820  67.9260180 100.9507190  54.9390080  67.0805730
 100.7655090  54.5184840  68.5230480 101.8049440  63.8120150  68.5472620
 102.2237550  64.6552880  68.3748860 100.8858070  63.9492190  68.3179400
 104.1413340  61.5436330  69.9310460 104.2609550  60.9477470  70.6705300
 105.0007340  61.5806020  69.5111760 106.4801240  62.0973520  68.5072970
 105.9536460  62.6216140  67.9038110 106.8232580  62.7300910  69.1382700
  98.8787630  59.4866890  54.9522680  98.6776690  58.6234250  55.3136020
  98.7079680  59.4000250  54.0144280  99.6556860  70.1173160  69.6630350
  99.1177950  70.8419220  69.3439050  99.9090820  69.6403500  68.8727690
 100.9082110  58.0857680  71.1886280 101.4981800  57.7773530  71.8764100
 100.0902350  57.6137430  71.3446180 105.7275540  57.7023490  71.4219300
 105.0391060  57.0405030  71.3569290 106.4481560  57.2561760  71.8667760
 106.3575940  54.2975120  57.4809560 106.6378230  53.4543020  57.8368980
 105.5841670  54.5298230  57.9948310  97.6770430  56.5867510  54.9400560
  97.9796330  56.5934940  54.0319710  98.4165020  56.2365370  55.4368220
 102.5119070  71.3524370  69.9217000 102.4377770  72.2559510  70.2289370
 101.6097910  71.0336270  69.8939070 100.8955360  55.5302130  55.9256760
 100.5477360  54.8526120  55.3459210 101.0968130  55.0691640  56.7400150
 103.0604400  70.5182880  57.5443360 103.9555190  70.8567850  57.5662120
 103.0922030  69.7962290  56.9167640  96.7000560  65.8909930  55.7730360
  97.1375430  66.4339600  56.4287940  97.1848290  65.0656880  55.7826700
  93.9146360  68.6798960  63.2250620  94.2449370  67.8120020  62.9929260
  94.3437360  68.8857480  64.0555580  98.5108280  67.0107970  60.8852590
  98.2103820  66.8872940  61.7856500  98.4045770  66.1516560  60.4768320
  94.4036570  69.5469550  65.9632250  93.9667560  69.7270350  66.7956400
  94.9714250  70.3044170  65.8213970  94.2361000  62.0589780  62.3221130
  93.5809840  61.7901420  61.6780830  95.0738950  61.9494260  61.8723110
 108.7250390  65.7738530  68.3485720 107.9110230  66.2035690  68.6111510
 109.1324590  66.3856940  67.7354770 107.1851440  56.8531070  56.5439620
 107.6036320  56.6662050  55.7036280 106.8787500  56.0010120  56.8542550
  95.2736930  62.4442350  66.8624470  95.6409970  62.3569750  67.7420490
  94.7047750  61.6808900  66.7631330  94.8252930  59.3551440  70.7682890
  93.9308980  59.3218200  71.1076600  95.3650480  59.5538230  71.5334140
 108.5128860  56.1383160  72.6534640 109.3899040  56.1466560  73.0368640
 108.5249700  55.4014000  72.0426990  93.4499080  59.2688710  58.2646460
  92.5463160  59.5318910  58.0898120  93.9339700  59.5399880  57.4846420
  95.9926290  58.3254250  56.1740840  96.7017990  57.9037470  55.6888120
  95.2766230  58.3929480  55.5424190  95.6400450  54.3793580  55.2143490
  96.3628580  54.9202520  55.5324710  95.9124970  54.1057000  54.3385030
  95.3292640  53.6299770  65.1166110  95.9768830  53.0797150  64.6761270
  95.7494480  53.8842920  65.9381920 108.7826440  70.5257130  61.8753990
 109.3785510  70.2041700  61.1988410 109.0404590  70.0528950  62.6667260
  95.0824640  53.7855440  67.8591430  94.7339460  54.2419260  68.6249610
  94.7512340  52.8912570  67.9413860  96.6889010  66.9575040  72.0244620
  96.6458640  66.5867950  72.9059080  96.8200020  67.8952610  72.1646440
 100.3895040  68.5134630  67.6254340 100.1486400  68.7809190  66.7384860
 101.3297680  68.6840360  67.6805200 102.5949460  54.9767320  71.3810850
 102.5338350  55.5689150  72.1306260 103.5349840  54.8693280  71.2361110
 105.2324020  54.6337380  71.0203140 105.8464430  54.9516670  70.3584220
 105.7773580  54.1485970  71.6399000  95.7545280  53.3131640  71.1342200
  96.3028270  53.1319690  70.3708310  95.8200590  52.5225750  71.6698510
  96.5277040  69.9037290  69.1442400  95.9337360  69.7721990  69.8832440
  96.5200880  69.0675430  68.6784500 105.9732060  53.1969520  67.3472430
 105.0991900  53.5304630  67.1445360 105.8642810  52.7242700  68.1724300
 106.8804040  55.4040390  68.7314150 106.5517400  54.5892150  68.3515880
 107.8286340  55.3610200  68.6079840 109.3338650  71.1752430  65.7051720
 108.8741620  71.9268240  65.3309740 108.7051110  70.4558900  65.6466520
  96.1589270  67.2695670  68.0950440  95.4323330  66.6500960  68.0276390
  96.2198420  67.6636280  67.2248520  99.7634370  69.4840670  64.8799850
 100.2799390  68.8728030  64.3548110 100.4131750  69.9869450  65.3710860
 102.5029870  70.3749160  65.7068830 102.7907680  70.1203460  64.8301840
 103.0153090  69.8226520  66.2974400 103.7206880  54.1139360  66.2865340
 102.9378670  54.5884860  66.5662100 103.4269810  53.2094190  66.1778520
 108.2727950  54.8162460  64.3314430 108.7136040  54.7607560  63.4836030
 108.0035540  55.7320470  64.4024610  94.4419270  70.5870060  61.3047200
  94.2741310  69.9540740  62.0029090  93.5753780  70.7929460  60.9541390
  95.0647290  54.4186840  58.8079060  95.8226650  54.5315720  58.2343090
  94.6024460  55.2556040  58.7622490 101.6061100  56.5326110  61.7981370
 100.7935610  56.1583000  61.4577250 102.1102740  55.7771190  62.1002560
 106.1086080  53.1968560  63.0364440 106.7115450  53.7688770  63.5112960
 105.3679070  53.7608000  62.8138340 109.2520680  53.5990120  58.3104720
 109.4471310  54.4973570  58.5772150 108.4650550  53.3677200  58.8037670
  96.0481970  69.2803290  58.7497340  95.5229590  69.6611320  58.0459300
  95.9726550  69.9054060  59.4707050  97.4372440  54.9450890  57.3481030
  97.9665200  54.1580690  57.2188980  98.0700760  55.6242080  57.5816560
  99.6310280  54.6826030  60.4026420  99.0013020  53.9813340  60.5696550
  99.0915420  55.4430160  60.1859580 102.5702230  71.2965260  73.0737030
 103.4969540  71.0609530  73.1172990 102.5552660  72.1237260  72.5923060
  99.7565840  53.9610010  72.8378910  99.4750110  54.4643610  72.0739730
 100.1385540  53.1631760  72.4721040  98.6474940  71.2285670  57.6246590
  99.3793760  70.9444950  57.0770480  98.9068610  70.9898950  58.5145970
  97.8089730  67.3450400  57.6292920  97.1798610  67.8135500  58.1778750
  97.9237560  66.4999620  58.0639110 106.3581300  53.3763590  73.4159380
 106.2446750  53.6958200  74.3110900 107.1751040  53.7776100  73.1196660
 105.2639450  61.3956060  43.7794120 105.1833500  60.4810670  43.5085830
 104.8503870  61.8923130  43.0733830 103.3957490  63.1735080  45.6603390
 102.6199590  62.6935520  45.9501960 104.0470420  62.4940730  45.4859550
  97.4123320  63.4854890  46.5379150  96.5808200  63.2303600  46.9375660
  98.0204300  63.5565660  47.2737070 107.4164920  67.5795270  44.4402520
 106.9546450  66.8082510  44.7689690 108.2290470  67.6061340  44.9454970
  97.3924580  67.5194980  46.7337170  97.6952620  66.6292720  46.5547390
  98.1368170  68.0765200  46.5059420  95.8215270  58.4456780  40.3221540
  94.9331970  58.7872750  40.2201420  96.1056460  58.2457100  39.4302370
  93.7848280  61.0462430  46.2061240  94.3564390  60.2784630  46.2064880
  93.7849820  61.3451190  45.2967850 103.6428230  69.8653280  44.0606510
 103.0239670  70.3210780  43.4900950 104.4980010  70.0204740  43.6596210
 102.8366480  65.8492270  45.6673550 102.7674760  64.9082210  45.5062680
 103.5986340  65.9393680  46.2396120  95.0273150  56.4546790  47.9930170
  94.8475990  55.5572540  48.2732930  94.6253230  57.0018660  48.6677120
 103.8671650  58.6562650  45.8942480 104.2436470  57.7834530  45.7816150
 103.7691160  58.9921350  45.0032920  97.9976660  57.0288280  41.3559920
  98.1043410  57.9292010  41.6628680  97.0869020  56.9806250  41.0654570
 107.6495770  56.1513090  42.8270820 108.4705390  55.6609660  42.8696300
 107.6829850  56.7410750  43.5802660  95.6459820  58.9507290  46.6012510
  96.3269930  59.2145660  47.2199910  95.3307870  58.1108160  46.9350520
  99.8384390  59.9974650  45.6885100 100.3462610  60.4955620  46.3290120
 100.3697630  59.2209850  45.5124460  98.1220490  54.6373210  49.9548520
  98.1238930  55.1545600  49.1494420  97.2924800  54.1603390  49.9318450
 104.5091580  64.7492520  41.4538420 103.8908850  65.2141970  40.8901140
 105.0214830  65.4420000  41.8707930  99.3723340  64.2768390  48.1322020
  99.0392720  64.9037310  48.7743090  99.5490020  64.8030270  47.3523690
 107.8857250  58.0913470  45.5998360 107.1812820  58.3798360  46.1801470
 108.2469410  58.9013580  45.2397920  97.8035820  56.3483170  47.9618970
  98.1452630  57.1925220  47.6672840  96.8651630  56.4966910  48.0784310
  98.5842440  66.2449190  49.9471200  99.2016440  66.9200270  49.6655650
  97.7235560  66.6537170  49.8558700  93.8774780  65.4349050  38.8278050
  93.5002760  65.9236150  38.0962950  94.1347850  66.1074330  39.4584580
 101.4863710  53.8365440  44.2863560 101.7938690  53.2812330  43.5699060
 100.5564410  53.9709900  44.1036550 107.0378770  69.5532730  46.5771020
 107.0505930  69.1495020  45.7093280 106.4853990  70.3280020  46.4732450
 108.3324190  66.2748950  41.6661190 108.2220520  65.3323280  41.7910610
 108.3292440  66.6364590  42.5523950 106.4364210  64.4562570  47.9053630
 106.8533000  64.2422680  47.0707090 107.1604030  64.7135360  48.4762250
 103.8744470  61.9014270  41.0223680 102.9473750  61.8351650  41.2512150
 104.0269290  62.8394400  40.9078920 103.8613550  58.1731270  38.0190840
 102.9217220  58.3345230  38.1043300 104.1796810  58.8916950  37.4726830
 107.9041760  63.4634570  41.5258930 107.2854180  63.1254120  40.8785230
 107.8866210  62.8194330  42.2338120 107.3468320  59.6419110  48.9424740
 106.9339500  60.4672820  49.1964730 106.6144270  59.0564150  48.7501100
  99.4801110  62.4279010  43.8043410  99.0758110  61.7156260  43.3089310
  99.5664230  62.0832250  44.6931450  99.9482810  66.1146570  45.9682620
  99.6511100  65.5092040  45.2890400 100.8982630  66.1523880  45.8571980
  98.1929730  59.2022220  47.5842450  98.7444320  59.3117560  46.8095700
  98.7073240  59.5759820  48.2997680 108.0368420  69.6878440  49.6305720
 107.5598980  70.4950630  49.4378330 107.3530210  69.0356770  49.7831930
  99.0401240  65.8528260  52.6190420  98.1429770  66.0768230  52.8663820
  99.0654110  65.9763200  51.6701820 106.0806460  62.7021380  38.5331680
 106.5199740  61.8643810  38.3869500 106.7934880  63.3350780  38.6195820
  97.8672460  62.7241580  51.1947790  97.7280230  63.5964380  51.5635190
  96.9853820  62.3814390  51.0495730 104.1901840  67.6417450  42.5012920
 104.6297750  68.3841780  42.0868310 104.1288730  67.8844020  43.4251880
  99.6652810  68.6663280  53.4032940  99.6368240  69.0706230  52.5361370
  99.5017780  67.7373640  53.2404540  96.1805740  61.3223990  41.3050060
  96.0603340  62.0486080  40.6931330  95.8706630  60.5526900  40.8277970
  93.8191110  64.4939130  47.1118700  93.8971530  64.6287900  46.1674420
  94.4332790  63.7855020  47.3046820  95.0638740  66.1939320  43.5224880
  94.6566820  66.3353910  42.6678480  95.9551750  65.9099480  43.3196090
 104.8817620  70.3431230  50.4291930 105.3962290  70.2539240  51.2314360
 104.0386700  70.6890930  50.7219840 106.8572020  70.6286570  39.8575930
 106.6973160  70.3389510  40.7557760 106.6918730  69.8526700  39.3221160
  99.3360400  70.4085100  41.6347550  99.1602880  69.4920640  41.4215350
  98.4816140  70.7672390  41.8745350 106.5598150  68.1374130  38.4173930
 105.8663310  68.1351420  37.7576210 107.3021010  67.7133450  37.9868100
 106.1248080  69.7636840  42.4922420 106.5805030  68.9826220  42.8061040
 106.4640600  70.4743660  43.0363600  93.8750630  65.5353300  49.6513160
  94.0381670  65.0658660  48.8332530  94.3403080  65.0276860  50.3162000
  98.6469400  54.6659060  44.6873730  98.2037550  55.4468600  44.3558250
  99.2054390  54.9888950  45.3944670 102.9339210  57.5327580  50.2909050
 102.4718580  57.7410600  51.1028990 102.5317320  56.7186930  49.9879720
 107.9343720  58.7536530  51.4205710 107.0837310  58.4542280  51.7414780
 107.7745510  58.9978540  50.5089530 105.0293430  60.2538280  53.5204500
 105.3546840  59.4202030  53.1806730 105.8173760  60.7766800  53.6682830
 101.7628220  54.2869760  39.5679560 101.1382400  54.2829630  40.2932870
 101.6758340  53.4200720  39.1715530 100.6845300  55.2106390  46.5463330
 100.9817630  56.1169220  46.4655350 101.2330860  54.7225170  45.9322900
  98.4383620  59.7892630  42.4154980  98.2124540  59.5729800  43.3201600
  97.6576150  60.2221090  42.0700950 105.6681380  59.7956000  41.0145630
 105.0690270  60.5191800  40.8309250 106.2160990  59.7332780  40.2322080
 100.8782830  60.6878210  53.0815250 100.7826430  59.7472940  52.9315650
 101.7214810  60.9093280  52.6863320 104.2746250  58.4319540  43.0448910
 104.6675820  58.7491740  42.2317600 104.6363100  57.5531420  43.1593430
  96.0093370  57.0991880  51.2349030  95.6156760  57.9467090  51.4421810
  95.3211770  56.4618250  51.4257670 102.5838420  57.1826850  54.3045770
 101.8936740  56.9899050  54.9391860 103.3270720  57.4661490  54.8370070
  93.3110420  55.0220340  45.2679110  93.0223470  55.5923200  45.9804090
  94.0556180  54.5424790  45.6310340  93.4980650  58.9640460  36.4781830
  93.4155320  59.9071220  36.6196820  93.1463710  58.8215370  35.5994180
 104.8601390  61.0225290  47.1399690 104.1282510  61.5312100  47.4889790
 104.4625730  60.2055270  46.8388470 101.2978780  57.6979490  45.5452180
 101.3014840  57.2569440  44.6956720 102.1929900  58.0196820  45.6524000
  97.1481160  57.5805980  44.5046390  96.8081210  58.0581210  45.2613440
  96.3858480  57.1271100  44.1447490 101.3598930  58.6991570  38.5358940
 101.4811750  58.6578050  39.4844760 100.9747440  59.5615720  38.3805670
 105.3227300  56.4758970  46.5522630 105.3400040  56.9267620  47.3964480
 105.0742880  55.5764610  46.7656070 100.3720430  61.0092710  37.9342240
  99.8037330  60.5610960  37.3078150 101.0809430  61.3685490  37.4007390
 108.7498050  53.8891150  52.3909010 109.0743820  53.1580810  52.9166990
 108.7854560  53.5704790  51.4890000  95.4489610  64.9104730  51.8108970
  95.0644400  64.2698400  52.4091930  95.7601800  65.6140850  52.3803700
 101.5986750  61.7581270  47.2917590 101.9656880  61.2839840  48.0378930
 101.4091810  62.6322840  47.6325930  94.4627240  56.5024960  43.4211060
  94.1774160  56.1380630  44.2589680  94.4006100  55.7705420  42.8074200
  99.3886120  60.7989910  49.6101800  99.0843190  61.6781890  49.8352160
 100.3432580  60.8589700  49.6459240  97.9167910  65.0050900  40.2068650
  97.1430170  64.4648520  40.0467370  98.6462540  64.4857510  39.8686410
 108.6755890  64.0016260  45.9995040 109.3955010  64.4971550  45.6091150
 108.4737710  63.3234150  45.3548910 104.1365830  55.3954220  40.1424430
 103.3230440  54.8967390  40.0669740 103.9427780  56.2352470  39.7260780
 104.0574690  64.0725320  51.8864040 103.9912000  63.1520990  51.6321630
 103.4279830  64.1700760  52.6008680 106.8514220  59.7673870  38.4386590
 107.7393840  60.0791100  38.2637930 106.8219310  58.8946120  38.0467170
  97.9605310  64.6731280  43.8447460  98.4783980  63.8699540  43.7904350
  97.5089330  64.6110420  44.6864290 102.8474810  65.9397560  39.1174760
 103.1890510  66.6839790  38.6218080 102.0187520  66.2528680  39.4799590
  95.4449850  61.6392650  50.7573160  95.0864790  62.3046500  51.3446500
  95.1504410  60.8076200  51.1285780  98.6462970  62.0976890  53.6412710
  98.3463110  62.2434070  52.7440530  99.4174210  61.5382180  53.5486100
 103.9891420  66.8945890  51.6367840 104.0035960  65.9626850  51.4186750
 103.2816520  66.9805650  52.2757610 105.7302220  65.2613400  44.4820270
 106.0826040  64.6641530  43.8221640 104.8464550  64.9357630  44.6528520
 101.8165500  66.0211090  41.8890680 102.5036630  66.5680300  42.2698270
 101.0297920  66.5651820  41.9240290  93.9557900  61.6383910  37.3807760
  94.8252750  61.9208710  37.6643680  93.4648220  62.4519780  37.2656570
 101.1192710  63.0257120  41.5016040 101.5755490  63.8362370  41.7276230
 100.7680920  62.7080260  42.3334530 103.4225320  68.5363460  48.7308340
 104.0667540  68.7422840  49.4081760 103.7854760  67.7751860  48.2779190
  97.0204490  53.3694770  41.9738560  96.8919120  53.3612670  42.9223480
  96.1966510  53.7077860  41.6229570 104.6957400  66.5395810  47.4485790
 105.3379630  65.8388970  47.5617960 105.2206750  67.3194250  47.2682680
 108.5413120  66.8244430  37.1724930 108.3150700  66.1074870  37.7649570
 108.1509320  66.5756870  36.3346680 106.4695020  67.3390710  50.6521850
 106.8051260  67.9257400  51.3299770 105.5495360  67.2083420  50.8819640
  94.3229150  70.8511290  37.9469390  94.6826790  71.4500630  37.2926660
  94.1821490  71.3971180  38.7204420  94.0198420  55.1285890  51.4345260
  93.3056940  55.3282810  52.0397870  94.4393460  54.3525460  51.8060060
 108.1229370  64.7416370  38.8339090 107.8351070  65.2029060  39.6216970
 108.9181540  64.2814140  39.1023310  94.3071010  69.1166150  52.4211790
  94.4162130  68.1760890  52.2807180  93.6551570  69.3820900  51.7725520
 102.2983600  67.3882040  53.8209910 101.9780470  66.6691280  54.3655600
 101.6241960  68.0637110  53.8945970 100.3397770  68.2342490  38.7643060
 100.3307870  68.9672180  38.1487570  99.4196130  67.9874070  38.8570020
  95.9404410  63.4557380  39.5089820  95.3332360  64.1956280  39.5185120
  96.4153760  63.5456740  38.6828020 105.5137200  57.6208200  49.1846710
 105.8818020  56.8003410  49.5126280 104.6535400  57.6810090  49.6002360
 108.8799230  56.5765140  39.9934270 108.2512390  56.6810810  39.2792500
 108.3851150  56.7961920  40.7828150 103.3257370  68.2970730  37.4268250
 103.4269350  68.0934720  36.4970230 102.4259110  68.0429010  37.6316030
 100.8483260  58.8551090  41.4092150 100.1399410  59.3237430  41.8505760
 101.1327740  58.1973100  42.0437340 102.4739190  60.2747790  49.4084680
 102.9724440  60.7493610  50.0736530 102.6162140  59.3511310  49.6154710
 104.8798690  55.5801750  42.8487940 104.7566470  55.5987880  41.8997450
 105.8283250  55.6280690  42.9686340 101.9675480  70.8157050  42.1215920
 102.2216980  70.7778440  41.1995290 101.0187960  70.6890380  42.1144170
  99.0518280  57.1636170  38.7842860  99.9008810  57.6006320  38.7183050
  98.6849550  57.4756430  39.6114920 107.9728060  61.7348930  43.6974430
 107.0318200  61.7499160  43.8722120 108.2872130  60.9484890  44.1434730
  97.9509700  63.4168530  37.2578390  98.7172970  63.3049890  37.8203820
  98.0284390  62.7206500  36.6055160  96.6456460  60.8493600  37.9411280
  96.7260050  59.9021110  38.0528680  97.5376210  61.1800480  38.0471940
  97.4471170  70.9988990  45.0445820  98.1833650  70.4504450  45.3154390
  97.8312090  71.8645000  44.9051810  94.3316650  67.0662560  40.9187330
  93.4056430  67.3083700  40.9092740  94.7973080  67.8936820  40.7972080
  96.4529450  70.1835060  54.2331400  97.2542180  70.5047110  54.6466800
  95.9381270  69.8230640  54.9551310 100.5573480  70.1719300  36.8671390
 101.3502090  70.4608130  36.4153180 100.0377830  69.7411470  36.1883870
 105.2894080  66.2914930  54.1806810 104.6832240  66.3146530  53.4402560
 104.9848190  65.5597970  54.7174060 106.7194450  70.0195220  52.7916220
 107.6716200  69.9353240  52.7416460 106.5722670  70.6836930  53.4650010
  94.1727260  62.6708520  53.1767450  94.6766280  62.0915800  53.7483680
  93.4334680  62.9548750  53.7143820 101.0750880  65.3922710  36.7313740
 100.9701520  64.7775060  37.4575120 100.9075100  64.8688600  35.9476750
 101.2265200  64.0779510  52.7102970 100.4610870  64.6464510  52.6257640
 101.4081160  63.7855720  51.8171200 104.3153610  64.4542740  37.3355730
 103.7663710  64.9012040  37.9798470 104.9372870  63.9491990  37.8593400
 108.3688550  65.8084840  53.2677990 109.1098020  66.1460600  52.7645450
 107.6061230  65.9776900  52.7147760  96.2050340  60.8138110  54.0717520
  96.2455680  60.5151980  54.9802750  97.0595840  61.2145720  53.9125040
  99.9828730  63.4133660  39.2321030 100.4045150  63.2473530  40.0752420
 100.1079570  62.6033890  38.7376170  98.1456150  59.3930210  52.0392010
  97.6152610  58.9021160  51.4115350  98.8144220  59.8214410  51.5049940
 102.4956370  62.4371270  36.4798130 103.0162030  61.7220290  36.1139280
 103.1424770  63.0757140  36.7798640 107.0434210  63.8599670  51.8033200
 107.4575230  64.0144750  52.6523620 106.1085210  63.9854890  51.9658980
 107.5156380  61.1995830  53.8072350 108.0977150  60.4448150  53.7192830
 107.6918150  61.7303270  53.0303830  98.6328450  56.3592580  52.1189300
  98.5385320  55.7413330  51.3940170  98.0525840  57.0858870  51.8919210
 101.3989890  54.9165820  49.1516690 100.9507190  54.9390080  48.3062240
 100.7655090  54.5184840  49.7486990 101.8049440  63.8120150  49.7729130
 102.2237550  64.6552880  49.6005370 100.8858070  63.9492190  49.5435910
 104.1413340  61.5436330  51.1566970 104.2609550  60.9477470  51.8961810
 105.0007340  61.5806020  50.7368270 106.4801240  62.0973520  49.7329480
 105.9536460  62.6216140  49.1294620 106.8232580  62.7300910  50.3639210
  98.8787630  59.4866890  36.1779190  98.6776690  58.6234250  36.5392530
  98.7079680  59.4000250  35.2400790  99.6556860  70.1173160  50.8886860
  99.1177950  70.8419220  50.5695560  99.9090820  69.6403500  50.0984200
 100.9082110  58.0857680  52.4142790 101.4981800  57.7773530  53.1020610
 100.0902350  57.6137430  52.5702690 105.7275540  57.7023490  52.6475810
 105.0391060  57.0405030  52.5825800 106.4481560  57.2561760  53.0924270
 106.3575940  54.2975120  38.7066070 106.6378230  53.4543020  39.0625490
 105.5841670  54.5298230  39.2204820  97.6770430  56.5867510  36.1657070
  97.9796330  56.5934940  35.2576220  98.4165020  56.2365370  36.6624730
 102.5119070  71.3524370  51.1473510 102.4377770  72.2559510  51.4545880
 101.6097910  71.0336270  51.1195580 100.8955360  55.5302130  37.1513270
 100.5477360  54.8526120  36.5715720 101.0968130  55.0691640  37.9656660
 103.0604400  70.5182880  38.7699870 103.9555190  70.8567850  38.7918630
 103.0922030  69.7962290  38.1424150  96.7000560  65.8909930  36.9986870
  97.1375430  66.4339600  37.6544450  97.1848290  65.0656880  37.0083210
  93.9146360  68.6798960  44.4507130  94.2449370  67.8120020  44.2185770
  94.3437360  68.8857480  45.2812090  98.5108280  67.0107970  42.1109100
  98.2103820  66.8872940  43.0113010  98.4045770  66.1516560  41.7024830
  94.4036570  69.5469550  47.1888760  93.9667560  69.7270350  48.0212910
  94.9714250  70.3044170  47.0470480  94.2361000  62.0589780  43.5477640
  93.5809840  61.7901420  42.9037340  95.0738950  61.9494260  43.0979620
 108.7250390  65.7738530  49.5742230 107.9110230  66.2035690  49.8368020
 109.1324590  66.3856940  48.9611280 107.1851440  56.8531070  37.7696130
 107.6036320  56.6662050  36.9292790 106.8787500  56.0010120  38.0799060
  95.2736930  62.4442350  48.0880980  95.6409970  62.3569750  48.9677000
  94.7047750  61.6808900  47.9887840  94.8252930  59.3551440  51.9939400
  93.9308980  59.3218200  52.3333110  95.3650480  59.5538230  52.7590650
 108.5128860  56.1383160  53.8791150 109.3899040  56.1466560  54.2625150
 108.5249700  55.4014000  53.2683500  93.4499080  59.2688710  39.4902970
  92.5463160  59.5318910  39.3154630  93.9339700  59.5399880  38.7102930
  95.9926290  58.3254250  37.3997350  96.7017990  57.9037470  36.9144630
  95.2766230  58.3929480  36.7680700  95.6400450  54.3793580  36.4400000
  96.3628580  54.9202520  36.7581220  95.9124970  54.1057000  35.5641540
  95.3292640  53.6299770  46.3422620  95.9768830  53.0797150  45.9017780
  95.7494480  53.8842920  47.1638430 108.7826440  70.5257130  43.1010500
 109.3785510  70.2041700  42.4244920 109.0404590  70.0528950  43.8923770
  95.0824640  53.7855440  49.0847940  94.7339460  54.2419260  49.8506120
  94.7512340  52.8912570  49.1670370  96.6889010  66.9575040  53.2501130
  96.6458640  66.5867950  54.1315590  96.8200020  67.8952610  53.3902950
 100.3895040  68.5134630  48.8510850 100.1486400  68.7809190  47.9641370
 101.3297680  68.6840360  48.9061710 102.5949460  54.9767320  52.6067360
 102.5338350  55.5689150  53.3562770 103.5349840  54.8693280  52.4617620
 105.2324020  54.6337380  52.2459650 105.8464430  54.9516670  51.5840730
 105.7773580  54.1485970  52.8655510  95.7545280  53.3131640  52.3598710
  96.3028270  53.1319690  51.5964820  95.8200590  52.5225750  52.8955020
  96.5277040  69.9037290  50.3698910  95.9337360  69.7721990  51.1088950
  96.5200880  69.0675430  49.9041010 105.9732060  53.1969520  48.5728940
 105.0991900  53.5304630  48.3701870 105.8642810  52.7242700  49.3980810
 106.8804040  55.4040390  49.9570660 106.5517400  54.5892150  49.5772390
 107.8286340  55.3610200  49.8336350 109.3338650  71.1752430  46.9308230
 108.8741620  71.9268240  46.5566250 108.7051110  70.4558900  46.8723030
  96.1589270  67.2695670  49.3206950  95.4323330  66.6500960  49.2532900
  96.2198420  67.6636280  48.4505030  99.7634370  69.4840670  46.1056360
 100.2799390  68.8728030  45.5804620 100.4131750  69.9869450  46.5967370
 102.5029870  70.3749160  46.9325340 102.7907680  70.1203460  46.0558350
 103.0153090  69.8226520  47.5230910 103.7206880  54.1139360  47.5121850
 102.9378670  54.5884860  47.7918610 103.4269810  53.2094190  47.4035030
 108.2727950  54.8162460  45.5570940 108.7136040  54.7607560  44.7092540
 108.0035540  55.7320470  45.6281120  94.4419270  70.5870060  42.5303710
  94.2741310  69.9540740  43.2285600  93.5753780  70.7929460  42.1797900
  95.0647290  54.4186840  40.0335570  95.8226650  54.5315720  39.4599600
  94.6024460  55.2556040  39.9879000 101.6061100  56.5326110  43.0237880
 100.7935610  56.1583000  42.6833760 102.1102740  55.7771190  43.3259070
 106.1086080  53.1968560  44.2620950 106.7115450  53.7688770  44.7369470
 105.3679070  53.7608000  44.0394850 109.2520680  53.5990120  39.5361230
 109.4471310  54.4973570  39.8028660 108.4650550  53.3677200  40.0294180
  96.0481970  69.2803290  39.9753850  95.5229590  69.6611320  39.2715810
  95.9726550  69.9054060  40.6963560  97.4372440  54.9450890  38.5737540
  97.9665200  54.1580690  38.4445490  98.0700760  55.6242080  38.8073070
  99.6310280  54.6826030  41.6282930  99.0013020  53.9813340  41.7953060
  99.0915420  55.4430160  41.4116090 102.5702230  71.2965260  54.2993540
 103.4969540  71.0609530  54.3429500 102.5552660  72.1237260  53.8179570
  99.7565840  53.9610010  54.0635420  99.4750110  54.4643610  53.2996240
 100.1385540  53.1631760  53.6977550  98.6474940  71.2285670  38.8503100
  99.3793760  70.9444950  38.3026990  98.9068610  70.9898950  39.7402480
  97.8089730  67.3450400  38.8549430  97.1798610  67.8135500  39.4035260
  97.9237560  66.4999620  39.2895620 106.3581300  53.3763590  54.6415890
 106.2446750  53.6958200  55.5367410 107.1751040  53.7776100  54.3453170
 105.2639450  61.3956060  25.0050630 105.1833500  60.4810670  24.7342340
 104.8503870  61.8923130  24.2990340 103.3957490  63.1735080  26.8859900
 102.6199590  62.6935520  27.1758470 104.0470420  62.4940730  26.7116060
  97.4123320  63.4854890  27.7635660  96.5808200  63.2303600  28.1632170
  98.0204300  63.5565660  28.4993580 107.4164920  67.5795270  25.6659030
 106.9546450  66.8082510  25.9946200 108.2290470  67.6061340  26.1711480
  97.3924580  67.5194980  27.9593680  97.6952620  66.6292720  27.7803900
  98.1368170  68.0765200  27.7315930  95.8215270  58.4456780  21.5478050
  94.9331970  58.7872750  21.4457930  96.1056460  58.2457100  20.6558880
  93.7848280  61.0462430  27.4317750  94.3564390  60.2784630  27.4321390
  93.7849820  61.3451190  26.5224360 103.6428230  69.8653280  25.2863020
 103.0239670  70.3210780  24.7157460 104.4980010  70.0204740  24.8852720
 102.8366480  65.8492270  26.8930060 102.7674760  64.9082210  26.7319190
 103.5986340  65.9393680  27.4652630  95.0273150  56.4546790  29.2186680
  94.8475990  55.5572540  29.4989440  94.6253230  57.0018660  29.8933630
 103.8671650  58.6562650  27.1198990 104.2436470  57.7834530  27.0072660
 103.7691160  58.9921350  26.2289430  97.9976660  57.0288280  22.5816430
  98.1043410  57.9292010  22.8885190  97.0869020  56.9806250  22.2911080
 107.6495770  56.1513090  24.0527330 108.4705390  55.6609660  24.0952810
 107.6829850  56.7410750  24.8059170  95.6459820  58.9507290  27.8269020
  96.3269930  59.2145660  28.4456420  95.3307870  58.1108160  28.1607030
  99.8384390  59.9974650  26.9141610 100.3462610  60.4955620  27.5546630
 100.3697630  59.2209850  26.7380970  98.1220490  54.6373210  31.1805030
  98.1238930  55.1545600  30.3750930  97.2924800  54.1603390  31.1574960
 104.5091580  64.7492520  22.6794930 103.8908850  65.2141970  22.1157650
 105.0214830  65.4420000  23.0964440  99.3723340  64.2768390  29.3578530
  99.0392720  64.9037310  29.9999600  99.5490020  64.8030270  28.5780200
 107.8857250  58.0913470  26.8254870 107.1812820  58.3798360  27.4057980
 108.2469410  58.9013580  26.4654430  97.8035820  56.3483170  29.1875480
  98.1452630  57.1925220  28.8929350  96.8651630  56.4966910  29.3040820
  98.5842440  66.2449190  31.1727710  99.2016440  66.9200270  30.8912160
  97.7235560  66.6537170  31.0815210  93.8774780  65.4349050  20.0534560
  93.5002760  65.9236150  19.3219460  94.1347850  66.1074330  20.6841090
 101.4863710  53.8365440  25.5120070 101.7938690  53.2812330  24.7955570
 100.5564410  53.9709900  25.3293060 107.0378770  69.5532730  27.8027530
 107.0505930  69.1495020  26.9349790 106.4853990  70.3280020  27.6988960
 108.3324190  66.2748950  22.8917700 108.2220520  65.3323280  23.0167120
 108.3292440  66.6364590  23.7780460 106.4364210  64.4562570  29.1310140
 106.8533000  64.2422680  28.2963600 107.1604030  64.7135360  29.7018760
 103.8744470  61.9014270  22.2480190 102.9473750  61.8351650  22.4768660
 104.0269290  62.8394400  22.1335430 103.8613550  58.1731270  19.2447350
 102.9217220  58.3345230  19.3299810 104.1796810  58.8916950  18.6983340
 107.9041760  63.4634570  22.7515440 107.2854180  63.1254120  22.1041740
 107.8866210  62.8194330  23.4594630 107.3468320  59.6419110  30.1681250
 106.9339500  60.4672820  30.4221240 106.6144270  59.0564150  29.9757610
  99.4801110  62.4279010  25.0299920  99.0758110  61.7156260  24.5345820
  99.5664230  62.0832250  25.9187960  99.9482810  66.1146570  27.1939130
  99.6511100  65.5092040  26.5146910 100.8982630  66.1523880  27.0828490
  98.1929730  59.2022220  28.8098960  98.7444320  59.3117560  28.0352210
  98.7073240  59.5759820  29.5254190 108.0368420  69.6878440  30.8562230
 107.5598980  70.4950630  30.6634840 107.3530210  69.0356770  31.0088440
  99.0401240  65.8528260  33.8446930  98.1429770  66.0768230  34.0920330
  99.0654110  65.9763200  32.8958330 106.0806460  62.7021380  19.7588190
 106.5199740  61.8643810  19.6126010 106.7934880  63.3350780  19.8452330
  97.8672460  62.7241580  32.4204300  97.7280230  63.5964380  32.7891700
  96.9853820  62.3814390  32.2752240 104.1901840  67.6417450  23.7269430
 104.6297750  68.3841780  23.3124820 104.1288730  67.8844020  24.6508390
  99.6652810  68.6663280  34.6289450  99.6368240  69.0706230  33.7617880
  99.5017780  67.7373640  34.4661050  96.1805740  61.3223990  22.5306570
  96.0603340  62.0486080  21.9187840  95.8706630  60.5526900  22.0534480
  93.8191110  64.4939130  28.3375210  93.8971530  64.6287900  27.3930930
  94.4332790  63.7855020  28.5303330  95.0638740  66.1939320  24.7481390
  94.6566820  66.3353910  23.8934990  95.9551750  65.9099480  24.5452600
 104.8817620  70.3431230  31.6548440 105.3962290  70.2539240  32.4570870
 104.0386700  70.6890930  31.9476350 106.8572020  70.6286570  21.0832440
 106.6973160  70.3389510  21.9814270 106.6918730  69.8526700  20.5477670
  99.3360400  70.4085100  22.8604060  99.1602880  69.4920640  22.6471860
  98.4816140  70.7672390  23.1001860 106.5598150  68.1374130  19.6430440
 105.8663310  68.1351420  18.9832720 107.3021010  67.7133450  19.2124610
 106.1248080  69.7636840  23.7178930 106.5805030  68.9826220  24.0317550
 106.4640600  70.4743660  24.2620110  93.8750630  65.5353300  30.8769670
  94.0381670  65.0658660  30.0589040  94.3403080  65.0276860  31.5418510
  98.6469400  54.6659060  25.9130240  98.2037550  55.4468600  25.5814760
  99.2054390  54.9888950  26.6201180 102.9339210  57.5327580  31.5165560
 102.4718580  57.7410600  32.3285500 102.5317320  56.7186930  31.2136230
 107.9343720  58.7536530  32.6462220 107.0837310  58.4542280  32.9671290
 107.7745510  58.9978540  31.7346040 105.0293430  60.2538280  34.7461010
 105.3546840  59.4202030  34.4063240 105.8173760  60.7766800  34.8939340
 101.7628220  54.2869760  20.7936070 101.1382400  54.2829630  21.5189380
 101.6758340  53.4200720  20.3972040 100.6845300  55.2106390  27.7719840
 100.9817630  56.1169220  27.6911860 101.2330860  54.7225170  27.1579410
  98.4383620  59.7892630  23.6411490  98.2124540  59.5729800  24.5458110
  97.6576150  60.2221090  23.2957460 105.6681380  59.7956000  22.2402140
 105.0690270  60.5191800  22.0565760 106.2160990  59.7332780  21.4578590
 100.8782830  60.6878210  34.3071760 100.7826430  59.7472940  34.1572160
 101.7214810  60.9093280  33.9119830 104.2746250  58.4319540  24.2705420
 104.6675820  58.7491740  23.4574110 104.6363100  57.5531420  24.3849940
  96.0093370  57.0991880  32.4605540  95.6156760  57.9467090  32.6678320
  95.3211770  56.4618250  32.6514180 102.5838420  57.1826850  35.5302280
 101.8936740  56.9899050  36.1648370 103.3270720  57.4661490  36.0626580
  93.3110420  55.0220340  26.4935620  93.0223470  55.5923200  27.2060600
  94.0556180  54.5424790  26.8566850  93.4980650  58.9640460  17.7038340
  93.4155320  59.9071220  17.8453330  93.1463710  58.8215370  16.8250690
 104.8601390  61.0225290  28.3656200 104.1282510  61.5312100  28.7146300
 104.4625730  60.2055270  28.0644980 101.2978780  57.6979490  26.7708690
 101.3014840  57.2569440  25.9213230 102.1929900  58.0196820  26.8780510
  97.1481160  57.5805980  25.7302900  96.8081210  58.0581210  26.4869950
  96.3858480  57.1271100  25.3704000 101.3598930  58.6991570  19.7615450
 101.4811750  58.6578050  20.7101270 100.9747440  59.5615720  19.6062180
 105.3227300  56.4758970  27.7779140 105.3400040  56.9267620  28.6220990
 105.0742880  55.5764610  27.9912580 100.3720430  61.0092710  19.1598750
  99.8037330  60.5610960  18.5334660 101.0809430  61.3685490  18.6263900
 108.7498050  53.8891150  33.6165520 109.0743820  53.1580810  34.1423500
 108.7854560  53.5704790  32.7146510  95.4489610  64.9104730  33.0365480
  95.0644400  64.2698400  33.6348440  95.7601800  65.6140850  33.6060210
 101.5986750  61.7581270  28.5174100 101.9656880  61.2839840  29.2635440
 101.4091810  62.6322840  28.8582440  94.4627240  56.5024960  24.6467570
  94.1774160  56.1380630  25.4846190  94.4006100  55.7705420  24.0330710
  99.3886120  60.7989910  30.8358310  99.0843190  61.6781890  31.0608670
 100.3432580  60.8589700  30.8715750  97.9167910  65.0050900  21.4325160
  97.1430170  64.4648520  21.2723880  98.6462540  64.4857510  21.0942920
 108.6755890  64.0016260  27.2251550 109.3955010  64.4971550  26.8347660
 108.4737710  63.3234150  26.5805420 104.1365830  55.3954220  21.3680940
 103.3230440  54.8967390  21.2926250 103.9427780  56.2352470  20.9517290
 104.0574690  64.0725320  33.1120550 103.9912000  63.1520990  32.8578140
 103.4279830  64.1700760  33.8265190 106.8514220  59.7673870  19.6643100
 107.7393840  60.0791100  19.4894440 106.8219310  58.8946120  19.2723680
  97.9605310  64.6731280  25.0703970  98.4783980  63.8699540  25.0160860
  97.5089330  64.6110420  25.9120800 102.8474810  65.9397560  20.3431270
 103.1890510  66.6839790  19.8474590 102.0187520  66.2528680  20.7056100
  95.4449850  61.6392650  31.9829670  95.0864790  62.3046500  32.5703010
  95.1504410  60.8076200  32.3542290  98.6462970  62.0976890  34.8669220
  98.3463110  62.2434070  33.9697040  99.4174210  61.5382180  34.7742610
 103.9891420  66.8945890  32.8624350 104.0035960  65.9626850  32.6443260
 103.2816520  66.9805650  33.5014120 105.7302220  65.2613400  25.7076780
 106.0826040  64.6641530  25.0478150 104.8464550  64.9357630  25.8785030
 101.8165500  66.0211090  23.1147190 102.5036630  66.5680300  23.4954780
 101.0297920  66.5651820  23.1496800  93.9557900  61.6383910  18.6064270
  94.8252750  61.9208710  18.8900190  93.4648220  62.4519780  18.4913080
 101.1192710  63.0257120  22.7272550 101.5755490  63.8362370  22.9532740
 100.7680920  62.7080260  23.5591040 103.4225320  68.5363460  29.9564850
 104.0667540  68.7422840  30.6338270 103.7854760  67.7751860  29.5035700
  97.0204490  53.3694770  23.1995070  96.8919120  53.3612670  24.1479990
  96.1966510  53.7077860  22.8486080 104.6957400  66.5395810  28.6742300
 105.3379630  65.8388970  28.7874470 105.2206750  67.3194250  28.4939190
 108.5413120  66.8244430  18.3981440 108.3150700  66.1074870  18.9906080
 108.1509320  66.5756870  17.5603190 106.4695020  67.3390710  31.8778360
 106.8051260  67.9257400  32.5556280 105.5495360  67.2083420  32.1076150
  94.3229150  70.8511290  19.1725900  94.6826790  71.4500630  18.5183170
  94.1821490  71.3971180  19.9460930  94.0198420  55.1285890  32.6601770
  93.3056940  55.3282810  33.2654380  94.4393460  54.3525460  33.0316570
 108.1229370  64.7416370  20.0595600 107.8351070  65.2029060  20.8473480
 108.9181540  64.2814140  20.3279820  94.3071010  69.1166150  33.6468300
  94.4162130  68.1760890  33.5063690  93.6551570  69.3820900  32.9982030
 102.2983600  67.3882040  35.0466420 101.9780470  66.6691280  35.5912110
 101.6241960  68.0637110  35.1202480 100.3397770  68.2342490  19.9899570
 100.3307870  68.9672180  19.3744080  99.4196130  67.9874070  20.0826530
  95.9404410  63.4557380  20.7346330  95.3332360  64.1956280  20.7441630
  96.4153760  63.5456740  19.9084530 105.5137200  57.6208200  30.4103220
 105.8818020  56.8003410  30.7382790 104.6535400  57.6810090  30.8258870
 108.8799230  56.5765140  21.2190780 108.2512390  56.6810810  20.5049010
 108.3851150  56.7961920  22.0084660 103.3257370  68.2970730  18.6524760
 103.4269350  68.0934720  17.7226740 102.4259110  68.0429010  18.8572540
 100.8483260  58.8551090  22.6348660 100.1399410  59.3237430  23.0762270
 101.1327740  58.1973100  23.2693850 102.4739190  60.2747790  30.6341190
 102.9724440  60.7493610  31.2993040 102.6162140  59.3511310  30.8411220
 104.8798690  55.5801750  24.0744450 104.7566470  55.5987880  23.1253960
 105.8283250  55.6280690  24.1942850 101.9675480  70.8157050  23.3472430
 102.2216980  70.7778440  22.4251800 101.0187960  70.6890380  23.3400680
  99.0518280  57.1636170  20.0099370  99.9008810  57.6006320  19.9439560
  98.6849550  57.4756430  20.8371430 107.9728060  61.7348930  24.9230940
 107.0318200  61.7499160  25.0978630 108.2872130  60.9484890  25.3691240
  97.9509700  63.4168530  18.4834900  98.7172970  63.3049890  19.0460330
  98.0284390  62.7206500  17.8311670  96.6456460  60.8493600  19.1667790
  96.7260050  59.9021110  19.2785190  97.5376210  61.1800480  19.2728450
  97.4471170  70.9988990  26.2702330  98.1833650  70.4504450  26.5410900
  97.8312090  71.8645000  26.1308320  94.3316650  67.0662560  22.1443840
  93.4056430  67.3083700  22.1349250  94.7973080  67.8936820  22.0228590
  96.4529450  70.1835060  35.4587910  97.2542180  70.5047110  35.8723310
  95.9381270  69.8230640  36.1807820 100.5573480  70.1719300  18.0927900
 101.3502090  70.4608130  17.6409690 100.0377830  69.7411470  17.4140380
 105.2894080  66.2914930  35.4063320 104.6832240  66.3146530  34.6659070
 104.9848190  65.5597970  35.9430570 106.7194450  70.0195220  34.0172730
 107.6716200  69.9353240  33.9672970 106.5722670  70.6836930  34.6906520
  94.1727260  62.6708520  34.4023960  94.6766280  62.0915800  34.9740190
  93.4334680  62.9548750  34.9400330 101.0750880  65.3922710  17.9570250
 100.9701520  64.7775060  18.6831630 100.9075100  64.8688600  17.1733260
 101.2265200  64.0779510  33.9359480 100.4610870  64.6464510  33.8514150
 101.4081160  63.7855720  33.0427710 104.3153610  64.4542740  18.5612240
 103.7663710  64.9012040  19.2054980 104.9372870  63.9491990  19.0849910
 108.3688550  65.8084840  34.4934500 109.1098020  66.1460600  33.9901960
 107.6061230  65.9776900  33.9404270  96.2050340  60.8138110  35.2974030
  96.2455680  60.5151980  36.2059260  97.0595840  61.2145720  35.1381550
  99.9828730  63.4133660  20.4577540 100.4045150  63.2473530  21.3008930
 100.1079570  62.6033890  19.9632680  98.1456150  59.3930210  33.2648520
  97.6152610  58.9021160  32.6371860  98.8144220  59.8214410  32.7306450
 102.4956370  62.4371270  17.7054640 103.0162030  61.7220290  17.3395790
 103.1424770  63.0757140  18.0055150 107.0434210  63.8599670  33.0289710
 107.4575230  64.0144750  33.8780130 106.1085210  63.9854890  33.1915490
 107.5156380  61.1995830  35.0328860 108.0977150  60.4448150  34.9449340
 107.6918150  61.7303270  34.2560340  98.6328450  56.3592580  33.3445810
  98.5385320  55.7413330  32.6196680  98.0525840  57.0858870  33.1175720
 101.3989890  54.9165820  30.3773200 100.9507190  54.9390080  29.5318750
 100.7655090  54.5184840  30.9743500 101.8049440  63.8120150  30.9985640
 102.2237550  64.6552880  30.8261880 100.8858070  63.9492190  30.7692420
 104.1413340  61.5436330  32.3823480 104.2609550  60.9477470  33.1218320
 105.0007340  61.5806020  31.9624780 106.4801240  62.0973520  30.9585990
 105.9536460  62.6216140  30.3551130 106.8232580  62.7300910  31.5895720
  98.8787630  59.4866890  17.4035700  98.6776690  58.6234250  17.7649040
  98.7079680  59.4000250  16.4657300  99.6556860  70.1173160  32.1143370
  99.1177950  70.8419220  31.7952070  99.9090820  69.6403500  31.3240710
 100.9082110  58.0857680  33.6399300 101.4981800  57.7773530  34.3277120
 100.0902350  57.6137430  33.7959200 105.7275540  57.7023490  33.8732320
 105.0391060  57.0405030  33.8082310 106.4481560  57.2561760  34.3180780
 106.3575940  54.2975120  19.9322580 106.6378230  53.4543020  20.2882000
 105.5841670  54.5298230  20.4461330  97.6770430  56.5867510  17.3913580
  97.9796330  56.5934940  16.4832730  98.4165020  56.2365370  17.8881240
 102.5119070  71.3524370  32.3730020 102.4377770  72.2559510  32.6802390
 101.6097910  71.0336270  32.3452090 100.8955360  55.5302130  18.3769780
 100.5477360  54.8526120  17.7972230 101.0968130  55.0691640  19.1913170
 103.0604400  70.5182880  19.9956380 103.9555190  70.8567850  20.0175140
 103.0922030  69.7962290  19.3680660  96.7000560  65.8909930  18.2243380
  97.1375430  66.4339600  18.8800960  97.1848290  65.0656880  18.2339720
  93.9146360  68.6798960  25.6763640  94.2449370  67.8120020  25.4442280
  94.3437360  68.8857480  26.5068600  98.5108280  67.0107970  23.3365610
  98.2103820  66.8872940  24.2369520  98.4045770  66.1516560  22.9281340
  94.4036570  69.5469550  28.4145270  93.9667560  69.7270350  29.2469420
  94.9714250  70.3044170  28.2726990  94.2361000  62.0589780  24.7734150
  93.5809840  61.7901420  24.1293850  95.0738950  61.9494260  24.3236130
 108.7250390  65.7738530  30.7998740 107.9110230  66.2035690  31.0624530
 109.1324590  66.3856940  30.1867790 107.1851440  56.8531070  18.9952640
 107.6036320  56.6662050  18.1549300 106.8787500  56.0010120  19.3055570
  95.2736930  62.4442350  29.3137490  95.6409970  62.3569750  30.1933510
  94.7047750  61.6808900  29.2144350  94.8252930  59.3551440  33.2195910
  93.9308980  59.3218200  33.5589620  95.3650480  59.5538230  33.9847160
 108.5128860  56.1383160  35.1047660 109.3899040  56.1466560  35.4881660
 108.5249700  55.4014000  34.4940010  93.4499080  59.2688710  20.7159480
  92.5463160  59.5318910  20.5411140  93.9339700  59.5399880  19.9359440
  95.9926290  58.3254250  18.6253860  96.7017990  57.9037470  18.1401140
  95.2766230  58.3929480  17.9937210  95.6400450  54.3793580  17.6656510
  96.3628580  54.9202520  17.9837730  95.9124970  54.1057000  16.7898050
  95.3292640  53.6299770  27.5679130  95.9768830  53.0797150  27.1274290
  95.7494480  53.8842920  28.3894940 108.7826440  70.5257130  24.3267010
 109.3785510  70.2041700  23.6501430 109.0404590  70.0528950  25.1180280
  95.0824640  53.7855440  30.3104450  94.7339460  54.2419260  31.0762630
  94.7512340  52.8912570  30.3926880  96.6889010  66.9575040  34.4757640
  96.6458640  66.5867950  35.3572100  96.8200020  67.8952610  34.6159460
 100.3895040  68.5134630  30.0767360 100.1486400  68.7809190  29.1897880
 101.3297680  68.6840360  30.1318220 102.5949460  54.9767320  33.8323870
 102.5338350  55.5689150  34.5819280 103.5349840  54.8693280  33.6874130
 105.2324020  54.6337380  33.4716160 105.8464430  54.9516670  32.8097240
 105.7773580  54.1485970  34.0912020  95.7545280  53.3131640  33.5855220
  96.3028270  53.1319690  32.8221330  95.8200590  52.5225750  34.1211530
  96.5277040  69.9037290  31.5955420  95.9337360  69.7721990  32.3345460
  96.5200880  69.0675430  31.1297520 105.9732060  53.1969520  29.7985450
 105.0991900  53.5304630  29.5958380 105.8642810  52.7242700  30.6237320
 106.8804040  55.4040390  31.1827170 106.5517400  54.5892150  30.8028900
 107.8286340  55.3610200  31.0592860 109.3338650  71.1752430  28.1564740
 108.8741620  71.9268240  27.7822760 108.7051110  70.4558900  28.0979540
  96.1589270  67.2695670  30.5463460  95.4323330  66.6500960  30.4789410
  96.2198420  67.6636280  29.6761540  99.7634370  69.4840670  27.3312870
 100.2799390  68.8728030  26.8061130 100.4131750  69.9869450  27.8223880
 102.5029870  70.3749160  28.1581850 102.7907680  70.1203460  27.2814860
 103.0153090  69.8226520  28.7487420 103.7206880  54.1139360  28.7378360
 102.9378670  54.5884860  29.0175120 103.4269810  53.2094190  28.6291540
 108.2727950  54.8162460  26.7827450 108.7136040  54.7607560  25.9349050
 108.0035540  55.7320470  26.8537630  94.4419270  70.5870060  23.7560220
  94.2741310  69.9540740  24.4542110  93.5753780  70.7929460  23.4054410
  95.0647290  54.4186840  21.2592080  95.8226650  54.5315720  20.6856110
  94.6024460  55.2556040  21.2135510 101.6061100  56.5326110  24.2494390
 100.7935610  56.1583000  23.9090270 102.1102740  55.7771190  24.5515580
 106.1086080  53.1968560  25.4877460 106.7115450  53.7688770  25.9625980
 105.3679070  53.7608000  25.2651360 109.2520680  53.5990120  20.7617740
 109.4471310  54.4973570  21.0285170 108.4650550  53.3677200  21.2550690
  96.0481970  69.2803290  21.2010360  95.5229590  69.6611320  20.4972320
  95.9726550  69.9054060  21.9220070  97.4372440  54.9450890  19.7994050
  97.9665200  54.1580690  19.6702000  98.0700760  55.6242080  20.0329580
  99.6310280  54.6826030  22.8539440  99.0013020  53.9813340  23.0209570
  99.0915420  55.4430160  22.6372600 102.5702230  71.2965260  35.5250050
 103.4969540  71.0609530  35.5686010 102.5552660  72.1237260  35.0436080
  99.7565840  53.9610010  35.2891930  99.4750110  54.4643610  34.5252750
 100.1385540  53.1631760  34.9234060  98.6474940  71.2285670  20.0759610
  99.3793760  70.9444950  19.5283500  98.9068610  70.9898950  20.9658990
  97.8089730  67.3450400  20.0805940  97.1798610  67.8135500  20.6291770
  97.9237560  66.4999620  20.5152130 106.3581300  53.3763590  35.8672400
 106.2446750  53.6958200  36.7623920 107.1751040  53.7776100  35.5709680
 105.2639450  61.3956060   6.2307140 105.1833500  60.4810670   5.9598850
 104.8503870  61.8923130   5.5246850 103.3957490  63.1735080   8.1116410
 102.6199590  62.6935520   8.4014980 104.0470420  62.4940730   7.9372570
  97.4123320  63.4854890   8.9892170  96.5808200  63.2303600   9.3888680
  98.0204300  63.5565660   9.7250090 107.4164920  67.5795270   6.8915540
 106.9546450  66.8082510   7.2202710 108.2290470  67.6061340   7.3967990
  97.3924580  67.5194980   9.1850190  97.6952620  66.6292720   9.0060410
  98.1368170  68.0765200   8.9572440  95.8215270  58.4456780   2.7734560
  94.9331970  58.7872750   2.6714440  96.1056460  58.2457100   1.8815390
  93.7848280  61.0462430   8.6574260  94.3564390  60.2784630   8.6577900
  93.7849820  61.3451190   7.7480870 103.6428230  69.8653280   6.5119530
 103.0239670  70.3210780   5.9413970 104.4980010  70.0204740   6.1109230
 102.8366480  65.8492270   8.1186570 102.7674760  64.9082210   7.9575700
 103.5986340  65.9393680   8.6909140  95.0273150  56.4546790  10.4443190
  94.8475990  55.5572540  10.7245950  94.6253230  57.0018660  11.1190140
 103.8671650  58.6562650   8.3455500 104.2436470  57.7834530   8.2329170
 103.7691160  58.9921350   7.4545940  97.9976660  57.0288280   3.8072940
  98.1043410  57.9292010   4.1141700  97.0869020  56.9806250   3.5167590
 107.6495770  56.1513090   5.2783840 108.4705390  55.6609660   5.3209320
 107.6829850  56.7410750   6.0315680  95.6459820  58.9507290   9.0525530
  96.3269930  59.2145660   9.6712930  95.3307870  58.1108160   9.3863540
  99.8384390  59.9974650   8.1398120 100.3462610  60.4955620   8.7803140
 100.3697630  59.2209850   7.9637480  98.1220490  54.6373210  12.4061540
  98.1238930  55.1545600  11.6007440  97.2924800  54.1603390  12.3831470
 104.5091580  64.7492520   3.9051440 103.8908850  65.2141970   3.3414160
 105.0214830  65.4420000   4.3220950  99.3723340  64.2768390  10.5835040
  99.0392720  64.9037310  11.2256110  99.5490020  64.8030270   9.8036710
 107.8857250  58.0913470   8.0511380 107.1812820  58.3798360   8.6314490
 108.2469410  58.9013580   7.6910940  97.8035820  56.3483170  10.4131990
  98.1452630  57.1925220  10.1185860  96.8651630  56.4966910  10.5297330
  98.5842440  66.2449190  12.3984220  99.2016440  66.9200270  12.1168670
  97.7235560  66.6537170  12.3071720 101.4863710  53.8365440   6.7376580
 101.7938690  53.2812330   6.0212080 100.5564410  53.9709900   6.5549570
 107.0378770  69.5532730   9.0284040 107.0505930  69.1495020   8.1606300
 106.4853990  70.3280020   8.9245470 108.3324190  66.2748950   4.1174210
 108.2220520  65.3323280   4.2423630 108.3292440  66.6364590   5.0036970
 106.4364210  64.4562570  10.3566650 106.8533000  64.2422680   9.5220110
 107.1604030  64.7135360  10.9275270 103.8744470  61.9014270   3.4736700
 102.9473750  61.8351650   3.7025170 104.0269290  62.8394400   3.3591940
 107.9041760  63.4634570   3.9771950 107.2854180  63.1254120   3.3298250
 107.8866210  62.8194330   4.6851140 107.3468320  59.6419110  11.3937760
 106.9339500  60.4672820  11.6477750 106.6144270  59.0564150  11.2014120
  99.4801110  62.4279010   6.2556430  99.0758110  61.7156260   5.7602330
  99.5664230  62.0832250   7.1444470  99.9482810  66.1146570   8.4195640
  99.6511100  65.5092040   7.7403420 100.8982630  66.1523880   8.3085000
  98.1929730  59.2022220  10.0355470  98.7444320  59.3117560   9.2608720
  98.7073240  59.5759820  10.7510700 108.0368420  69.6878440  12.0818740
 107.5598980  70.4950630  11.8891350 107.3530210  69.0356770  12.2344950
  99.0401240  65.8528260  15.0703440  98.1429770  66.0768230  15.3176840
  99.0654110  65.9763200  14.1214840  97.8672460  62.7241580  13.6460810
  97.7280230  63.5964380  14.0148210  96.9853820  62.3814390  13.5008750
 104.1901840  67.6417450   4.9525940 104.6297750  68.3841780   4.5381330
 104.1288730  67.8844020   5.8764900  99.6652810  68.6663280  15.8545960
  99.6368240  69.0706230  14.9874390  99.5017780  67.7373640  15.6917560
  96.1805740  61.3223990   3.7563080  96.0603340  62.0486080   3.1444350
  95.8706630  60.5526900   3.2790990  93.8191110  64.4939130   9.5631720
  93.8971530  64.6287900   8.6187440  94.4332790  63.7855020   9.7559840
  95.0638740  66.1939320   5.9737900  94.6566820  66.3353910   5.1191500
  95.9551750  65.9099480   5.7709110 104.8817620  70.3431230  12.8804950
 105.3962290  70.2539240  13.6827380 104.0386700  70.6890930  13.1732860
 106.8572020  70.6286570   2.3088950 106.6973160  70.3389510   3.2070780
 106.6918730  69.8526700   1.7734180  99.3360400  70.4085100   4.0860570
  99.1602880  69.4920640   3.8728370  98.4816140  70.7672390   4.3258370
 106.1248080  69.7636840   4.9435440 106.5805030  68.9826220   5.2574060
 106.4640600  70.4743660   5.4876620  93.8750630  65.5353300  12.1026180
  94.0381670  65.0658660  11.2845550  94.3403080  65.0276860  12.7675020
  98.6469400  54.6659060   7.1386750  98.2037550  55.4468600   6.8071270
  99.2054390  54.9888950   7.8457690 102.9339210  57.5327580  12.7422070
 102.4718580  57.7410600  13.5542010 102.5317320  56.7186930  12.4392740
 107.9343720  58.7536530  13.8718730 107.0837310  58.4542280  14.1927800
 107.7745510  58.9978540  12.9602550 105.0293430  60.2538280  15.9717520
 105.3546840  59.4202030  15.6319750 105.8173760  60.7766800  16.1195850
 100.6845300  55.2106390   8.9976350 100.9817630  56.1169220   8.9168370
 101.2330860  54.7225170   8.3835920  98.4383620  59.7892630   4.8668000
  98.2124540  59.5729800   5.7714620  97.6576150  60.2221090   4.5213970
 105.6681380  59.7956000   3.4658650 105.0690270  60.5191800   3.2822270
 106.2160990  59.7332780   2.6835100 100.8782830  60.6878210  15.5328270
 100.7826430  59.7472940  15.3828670 101.7214810  60.9093280  15.1376340
 104.2746250  58.4319540   5.4961930 104.6675820  58.7491740   4.6830620
 104.6363100  57.5531420   5.6106450  96.0093370  57.0991880  13.6862050
  95.6156760  57.9467090  13.8934830  95.3211770  56.4618250  13.8770690
 102.5838420  57.1826850  16.7558790 101.8936740  56.9899050  17.3904880
 103.3270720  57.4661490  17.2883090  93.3110420  55.0220340   7.7192130
  93.0223470  55.5923200   8.4317110  94.0556180  54.5424790   8.0823360
 104.8601390  61.0225290   9.5912710 104.1282510  61.5312100   9.9402810
 104.4625730  60.2055270   9.2901490 101.2978780  57.6979490   7.9965200
 101.3014840  57.2569440   7.1469740 102.1929900  58.0196820   8.1037020
  97.1481160  57.5805980   6.9559410  96.8081210  58.0581210   7.7126460
  96.3858480  57.1271100   6.5960510 105.3227300  56.4758970   9.0035650
 105.3400040  56.9267620   9.8477500 105.0742880  55.5764610   9.2169090
 108.7498050  53.8891150  14.8422030 109.0743820  53.1580810  15.3680010
 108.7854560  53.5704790  13.9403020  95.4489610  64.9104730  14.2621990
  95.0644400  64.2698400  14.8604950  95.7601800  65.6140850  14.8316720
 101.5986750  61.7581270   9.7430610 101.9656880  61.2839840  10.4891950
 101.4091810  62.6322840  10.0838950  94.4627240  56.5024960   5.8724080
  94.1774160  56.1380630   6.7102700  94.4006100  55.7705420   5.2587220
  99.3886120  60.7989910  12.0614820  99.0843190  61.6781890  12.2865180
 100.3432580  60.8589700  12.0972260  97.9167910  65.0050900   2.6581670
  97.1430170  64.4648520   2.4980390  98.6462540  64.4857510   2.3199430
 108.6755890  64.0016260   8.4508060 109.3955010  64.4971550   8.0604170
 108.4737710  63.3234150   7.8061930 104.1365830  55.3954220   2.5937450
 103.3230440  54.8967390   2.5182760 103.9427780  56.2352470   2.1773800
 104.0574690  64.0725320  14.3377060 103.9912000  63.1520990  14.0834650
 103.4279830  64.1700760  15.0521700  97.9605310  64.6731280   6.2960480
  98.4783980  63.8699540   6.2417370  97.5089330  64.6110420   7.1377310
  95.4449850  61.6392650  13.2086180  95.0864790  62.3046500  13.7959520
  95.1504410  60.8076200  13.5798800  98.6462970  62.0976890  16.0925730
  98.3463110  62.2434070  15.1953550  99.4174210  61.5382180  15.9999120
 103.9891420  66.8945890  14.0880860 104.0035960  65.9626850  13.8699770
 103.2816520  66.9805650  14.7270630 105.7302220  65.2613400   6.9333290
 106.0826040  64.6641530   6.2734660 104.8464550  64.9357630   7.1041540
 101.8165500  66.0211090   4.3403700 102.5036630  66.5680300   4.7211290
 101.0297920  66.5651820   4.3753310 101.1192710  63.0257120   3.9529060
 101.5755490  63.8362370   4.1789250 100.7680920  62.7080260   4.7847550
 103.4225320  68.5363460  11.1821360 104.0667540  68.7422840  11.8594780
 103.7854760  67.7751860  10.7292210  97.0204490  53.3694770   4.4251580
  96.8919120  53.3612670   5.3736500  96.1966510  53.7077860   4.0742590
 104.6957400  66.5395810   9.8998810 105.3379630  65.8388970  10.0130980
 105.2206750  67.3194250   9.7195700 106.4695020  67.3390710  13.1034870
 106.8051260  67.9257400  13.7812790 105.5495360  67.2083420  13.3332660
  94.0198420  55.1285890  13.8858280  93.3056940  55.3282810  14.4910890
  94.4393460  54.3525460  14.2573080  94.3071010  69.1166150  14.8724810
  94.4162130  68.1760890  14.7320200  93.6551570  69.3820900  14.2238540
 102.2983600  67.3882040  16.2722930 101.9780470  66.6691280  16.8168620
 101.6241960  68.0637110  16.3458990 105.5137200  57.6208200  11.6359730
 105.8818020  56.8003410  11.9639300 104.6535400  57.6810090  12.0515380
 108.8799230  56.5765140   2.4447290 108.2512390  56.6810810   1.7305520
 108.3851150  56.7961920   3.2341170 100.8483260  58.8551090   3.8605170
 100.1399410  59.3237430   4.3018780 101.1327740  58.1973100   4.4950360
 102.4739190  60.2747790  11.8597700 102.9724440  60.7493610  12.5249550
 102.6162140  59.3511310  12.0667730 104.8798690  55.5801750   5.3000960
 104.7566470  55.5987880   4.3510470 105.8283250  55.6280690   5.4199360
 101.9675480  70.8157050   4.5728940 102.2216980  70.7778440   3.6508310
 101.0187960  70.6890380   4.5657190 107.9728060  61.7348930   6.1487450
 107.0318200  61.7499160   6.3235140 108.2872130  60.9484890   6.5947750
  97.4471170  70.9988990   7.4958840  98.1833650  70.4504450   7.7667410
  97.8312090  71.8645000   7.3564830  94.3316650  67.0662560   3.3700350
  93.4056430  67.3083700   3.3605760  94.7973080  67.8936820   3.2485100
  96.4529450  70.1835060  16.6844420  97.2542180  70.5047110  17.0979820
  95.9381270  69.8230640  17.4064330 105.2894080  66.2914930  16.6319830
 104.6832240  66.3146530  15.8915580 104.9848190  65.5597970  17.1687080
 106.7194450  70.0195220  15.2429240 107.6716200  69.9353240  15.1929480
 106.5722670  70.6836930  15.9163030  94.1727260  62.6708520  15.6280470
  94.6766280  62.0915800  16.1996700  93.4334680  62.9548750  16.1656840
 101.2265200  64.0779510  15.1615990 100.4610870  64.6464510  15.0770660
 101.4081160  63.7855720  14.2684220 108.3688550  65.8084840  15.7191010
 109.1098020  66.1460600  15.2158470 107.6061230  65.9776900  15.1660780
  96.2050340  60.8138110  16.5230540  96.2455680  60.5151980  17.4315770
  97.0595840  61.2145720  16.3638060  98.1456150  59.3930210  14.4905030
  97.6152610  58.9021160  13.8628370  98.8144220  59.8214410  13.9562960
 107.0434210  63.8599670  14.2546220 107.4575230  64.0144750  15.1036640
 106.1085210  63.9854890  14.4172000 107.5156380  61.1995830  16.2585370
 108.0977150  60.4448150  16.1705850 107.6918150  61.7303270  15.4816850
  98.6328450  56.3592580  14.5702320  98.5385320  55.7413330  13.8453190
  98.0525840  57.0858870  14.3432230 101.3989890  54.9165820  11.6029710
 100.9507190  54.9390080  10.7575260 100.7655090  54.5184840  12.2000010
 101.8049440  63.8120150  12.2242150 102.2237550  64.6552880  12.0518390
 100.8858070  63.9492190  11.9948930 104.1413340  61.5436330  13.6079990
 104.2609550  60.9477470  14.3474830 105.0007340  61.5806020  13.1881290
 106.4801240  62.0973520  12.1842500 105.9536460  62.6216140  11.5807640
 106.8232580  62.7300910  12.8152230  99.6556860  70.1173160  13.3399880
  99.1177950  70.8419220  13.0208580  99.9090820  69.6403500  12.5497220
 100.9082110  58.0857680  14.8655810 101.4981800  57.7773530  15.5533630
 100.0902350  57.6137430  15.0215710 105.7275540  57.7023490  15.0988830
 105.0391060  57.0405030  15.0338820 106.4481560  57.2561760  15.5437290
 102.5119070  71.3524370  13.5986530 102.4377770  72.2559510  13.9058900
 101.6097910  71.0336270  13.5708600  93.9146360  68.6798960   6.9020150
  94.2449370  67.8120020   6.6698790  94.3437360  68.8857480   7.7325110
  98.5108280  67.0107970   4.5622120  98.2103820  66.8872940   5.4626030
  98.4045770  66.1516560   4.1537850  94.4036570  69.5469550   9.6401780
  93.9667560  69.7270350  10.4725930  94.9714250  70.3044170   9.4983500
  94.2361000  62.0589780   5.9990660  93.5809840  61.7901420   5.3550360
  95.0738950  61.9494260   5.5492640 108.7250390  65.7738530  12.0255250
 107.9110230  66.2035690  12.2881040 109.1324590  66.3856940  11.4124300
  95.2736930  62.4442350  10.5394000  95.6409970  62.3569750  11.4190020
  94.7047750  61.6808900  10.4400860  94.8252930  59.3551440  14.4452420
  93.9308980  59.3218200  14.7846130  95.3650480  59.5538230  15.2103670
 108.5128860  56.1383160  16.3304170 109.3899040  56.1466560  16.7138170
 108.5249700  55.4014000  15.7196520  95.3292640  53.6299770   8.7935640
  95.9768830  53.0797150   8.3530800  95.7494480  53.8842920   9.6151450
 108.7826440  70.5257130   5.5523520 109.3785510  70.2041700   4.8757940
 109.0404590  70.0528950   6.3436790  95.0824640  53.7855440  11.5360960
  94.7339460  54.2419260  12.3019140  94.7512340  52.8912570  11.6183390
  96.6889010  66.9575040  15.7014150  96.6458640  66.5867950  16.5828610
  96.8200020  67.8952610  15.8415970 100.3895040  68.5134630  11.3023870
 100.1486400  68.7809190  10.4154390 101.3297680  68.6840360  11.3574730
 102.5949460  54.9767320  15.0580380 102.5338350  55.5689150  15.8075790
 103.5349840  54.8693280  14.9130640 105.2324020  54.6337380  14.6972670
 105.8464430  54.9516670  14.0353750 105.7773580  54.1485970  15.3168530
  95.7545280  53.3131640  14.8111730  96.3028270  53.1319690  14.0477840
  95.8200590  52.5225750  15.3468040  96.5277040  69.9037290  12.8211930
  95.9337360  69.7721990  13.5601970  96.5200880  69.0675430  12.3554030
 105.9732060  53.1969520  11.0241960 105.0991900  53.5304630  10.8214890
 105.8642810  52.7242700  11.8493830 106.8804040  55.4040390  12.4083680
 106.5517400  54.5892150  12.0285410 107.8286340  55.3610200  12.2849370
 109.3338650  71.1752430   9.3821250 108.8741620  71.9268240   9.0079270
 108.7051110  70.4558900   9.3236050  96.1589270  67.2695670  11.7719970
  95.4323330  66.6500960  11.7045920  96.2198420  67.6636280  10.9018050
  99.7634370  69.4840670   8.5569380 100.2799390  68.8728030   8.0317640
 100.4131750  69.9869450   9.0480390 102.5029870  70.3749160   9.3838360
 102.7907680  70.1203460   8.5071370 103.0153090  69.8226520   9.9743930
 103.7206880  54.1139360   9.9634870 102.9378670  54.5884860  10.2431630
 103.4269810  53.2094190   9.8548050 108.2727950  54.8162460   8.0083960
 108.7136040  54.7607560   7.1605560 108.0035540  55.7320470   8.0794140
  94.4419270  70.5870060   4.9816730  94.2741310  69.9540740   5.6798620
  93.5753780  70.7929460   4.6310920  95.0647290  54.4186840   2.4848590
  95.8226650  54.5315720   1.9112620  94.6024460  55.2556040   2.4392020
 101.6061100  56.5326110   5.4750900 100.7935610  56.1583000   5.1346780
 102.1102740  55.7771190   5.7772090 106.1086080  53.1968560   6.7133970
 106.7115450  53.7688770   7.1882490 105.3679070  53.7608000   6.4907870
 109.2520680  53.5990120   1.9874250 109.4471310  54.4973570   2.2541680
 108.4650550  53.3677200   2.4807200  96.0481970  69.2803290   2.4266870
  95.5229590  69.6611320   1.7228830  95.9726550  69.9054060   3.1476580
  99.6310280  54.6826030   4.0795950  99.0013020  53.9813340   4.2466080
  99.0915420  55.4430160   3.8629110 102.5702230  71.2965260  16.7506560
 103.4969540  71.0609530  16.7942520 102.5552660  72.1237260  16.2692590
  99.7565840  53.9610010  16.5148440  99.4750110  54.4643610  15.7509260
 100.1385540  53.1631760  16.1490570 106.3581300  53.3763590  17.0928910
 106.2446750  53.6958200  17.9880430 107.1751040  53.7776100  16.7966190
 105.2639450  42.6212570  81.3281100 105.1833500  41.7067180  81.0572810
 104.8503870  43.1179640  80.6220810 103.3957490  44.3991590  83.2090370
 102.6199590  43.9192030  83.4988940 104.0470420  43.7197240  83.0346530
  97.4123320  44.7111400  84.0866130  96.5808200  44.4560110  84.4862640
  98.0204300  44.7822170  84.8224050 107.4164920  48.8051780  81.9889500
 106.9546450  48.0339020  82.3176670 108.2290470  48.8317850  82.4941950
  97.3924580  48.7451490  84.2824150  97.6952620  47.8549230  84.1034370
  98.1368170  49.3021710  84.0546400  95.8215270  39.6713290  77.8708520
  94.9331970  40.0129260  77.7688400  96.1056460  39.4713610  76.9789350
  93.7848280  42.2718940  83.7548220  94.3564390  41.5041140  83.7551860
  93.7849820  42.5707700  82.8454830 103.6428230  51.0909790  81.6093490
 103.0239670  51.5467290  81.0387930 104.4980010  51.2461250  81.2083190
 102.8366480  47.0748780  83.2160530 102.7674760  46.1338720  83.0549660
 103.5986340  47.1650190  83.7883100  95.0273150  37.6803300  85.5417150
  94.8475990  36.7829050  85.8219910  94.6253230  38.2275170  86.2164100
 103.8671650  39.8819160  83.4429460 104.2436470  39.0091040  83.3303130
 103.7691160  40.2177860  82.5519900  97.9976660  38.2544790  78.9046900
  98.1043410  39.1548520  79.2115660  97.0869020  38.2062760  78.6141550
 107.6495770  37.3769600  80.3757800 108.4705390  36.8866170  80.4183280
 107.6829850  37.9667260  81.1289640  95.6459820  40.1763800  84.1499490
  96.3269930  40.4402170  84.7686890  95.3307870  39.3364670  84.4837500
  99.8384390  41.2231160  83.2372080 100.3462610  41.7212130  83.8777100
 100.3697630  40.4466360  83.0611440  98.1220490  35.8629720  87.5035500
  98.1238930  36.3802110  86.6981400  97.2924800  35.3859900  87.4805430
 104.5091580  45.9749030  79.0025400 103.8908850  46.4398480  78.4388120
 105.0214830  46.6676510  79.4194910  99.3723340  45.5024900  85.6809000
  99.0392720  46.1293820  86.3230070  99.5490020  46.0286780  84.9010670
 107.8857250  39.3169980  83.1485340 107.1812820  39.6054870  83.7288450
 108.2469410  40.1270090  82.7884900  97.8035820  37.5739680  85.5105950
  98.1452630  38.4181730  85.2159820  96.8651630  37.7223420  85.6271290
  98.5842440  47.4705700  87.4958180  99.2016440  48.1456780  87.2142630
  97.7235560  47.8793680  87.4045680  93.8774780  46.6605560  76.3765030
  93.5002760  47.1492660  75.6449930  94.1347850  47.3330840  77.0071560
 101.4863710  35.0621950  81.8350540 101.7938690  34.5068840  81.1186040
 100.5564410  35.1966410  81.6523530 107.0378770  50.7789240  84.1258000
 107.0505930  50.3751530  83.2580260 106.4853990  51.5536530  84.0219430
 108.3324190  47.5005460  79.2148170 108.2220520  46.5579790  79.3397590
 108.3292440  47.8621100  80.1010930 106.4364210  45.6819080  85.4540610
 106.8533000  45.4679190  84.6194070 107.1604030  45.9391870  86.0249230
 103.8744470  43.1270780  78.5710660 102.9473750  43.0608160  78.7999130
 104.0269290  44.0650910  78.4565900 103.8613550  39.3987780  75.5677820
 102.9217220  39.5601740  75.6530280 104.1796810  40.1173460  75.0213810
 107.9041760  44.6891080  79.0745910 107.2854180  44.3510630  78.4272210
 107.8866210  44.0450840  79.7825100 107.3468320  40.8675620  86.4911720
 106.9339500  41.6929330  86.7451710 106.6144270  40.2820660  86.2988080
  99.4801110  43.6535520  81.3530390  99.0758110  42.9412770  80.8576290
  99.5664230  43.3088760  82.2418430  99.9482810  47.3403080  83.5169600
  99.6511100  46.7348550  82.8377380 100.8982630  47.3780390  83.4058960
  98.1929730  40.4278730  85.1329430  98.7444320  40.5374070  84.3582680
  98.7073240  40.8016330  85.8484660 108.0368420  50.9134950  87.1792700
 107.5598980  51.7207140  86.9865310 107.3530210  50.2613280  87.3318910
 106.0806460  43.9277890  76.0818660 106.5199740  43.0900320  75.9356480
 106.7934880  44.5607290  76.1682800  97.8672460  43.9498090  88.7434770
  97.7280230  44.8220890  89.1122170  96.9853820  43.6070900  88.5982710
 104.1901840  48.8673960  80.0499900 104.6297750  49.6098290  79.6355290
 104.1288730  49.1100530  80.9738860  96.1805740  42.5480500  78.8537040
  96.0603340  43.2742590  78.2418310  95.8706630  41.7783410  78.3764950
  93.8191110  45.7195640  84.6605680  93.8971530  45.8544410  83.7161400
  94.4332790  45.0111530  84.8533800  95.0638740  47.4195830  81.0711860
  94.6566820  47.5610420  80.2165460  95.9551750  47.1355990  80.8683070
 104.8817620  51.5687740  87.9778910 105.3962290  51.4795750  88.7801340
 104.0386700  51.9147440  88.2706820 106.8572020  51.8543080  77.4062910
 106.6973160  51.5646020  78.3044740 106.6918730  51.0783210  76.8708140
  99.3360400  51.6341610  79.1834530  99.1602880  50.7177150  78.9702330
  98.4816140  51.9928900  79.4232330 106.5598150  49.3630640  75.9660910
 105.8663310  49.3607930  75.3063190 107.3021010  48.9389960  75.5355080
 106.1248080  50.9893350  80.0409400 106.5805030  50.2082730  80.3548020
 106.4640600  51.7000170  80.5850580  93.8750630  46.7609810  87.2000140
  94.0381670  46.2915170  86.3819510  94.3403080  46.2533370  87.8648980
  98.6469400  35.8915570  82.2360710  98.2037550  36.6725110  81.9045230
  99.2054390  36.2145460  82.9431650 102.9339210  38.7584090  87.8396030
 102.4718580  38.9667110  88.6515970 102.5317320  37.9443440  87.5366700
 101.7628220  35.5126270  77.1166540 101.1382400  35.5086140  77.8419850
 101.6758340  34.6457230  76.7202510 100.6845300  36.4362900  84.0950310
 100.9817630  37.3425730  84.0142330 101.2330860  35.9481680  83.4809880
  98.4383620  41.0149140  79.9641960  98.2124540  40.7986310  80.8688580
  97.6576150  41.4477600  79.6187930 105.6681380  41.0212510  78.5632610
 105.0690270  41.7448310  78.3796230 106.2160990  40.9589290  77.7809060
 104.2746250  39.6576050  80.5935890 104.6675820  39.9748250  79.7804580
 104.6363100  38.7787930  80.7080410  96.0093370  38.3248390  88.7836010
  95.6156760  39.1723600  88.9908790  95.3211770  37.6874760  88.9744650
  93.3110420  36.2476850  82.8166090  93.0223470  36.8179710  83.5291070
  94.0556180  35.7681300  83.1797320  93.4980650  40.1896970  74.0268810
  93.4155320  41.1327730  74.1683800  93.1463710  40.0471880  73.1481160
 104.8601390  42.2481800  84.6886670 104.1282510  42.7568610  85.0376770
 104.4625730  41.4311780  84.3875450 101.2978780  38.9236000  83.0939160
 101.3014840  38.4825950  82.2443700 102.1929900  39.2453330  83.2010980
  97.1481160  38.8062490  82.0533370  96.8081210  39.2837720  82.8100420
  96.3858480  38.3527610  81.6934470 101.3598930  39.9248080  76.0845920
 101.4811750  39.8834560  77.0331740 100.9747440  40.7872230  75.9292650
 105.3227300  37.7015480  84.1009610 105.3400040  38.1524130  84.9451460
 105.0742880  36.8021120  84.3143050 100.3720430  42.2349220  75.4829220
  99.8037330  41.7867470  74.8565130 101.0809430  42.5942000  74.9494370
 101.5986750  42.9837780  84.8404570 101.9656880  42.5096350  85.5865910
 101.4091810  43.8579350  85.1812910  94.4627240  37.7281470  80.9698040
  94.1774160  37.3637140  81.8076660  94.4006100  36.9961930  80.3561180
  99.3886120  42.0246420  87.1588780  99.0843190  42.9038400  87.3839140
 100.3432580  42.0846210  87.1946220  97.9167910  46.2307410  77.7555630
  97.1430170  45.6905030  77.5954350  98.6462540  45.7114020  77.4173390
 108.6755890  45.2272770  83.5482020 109.3955010  45.7228060  83.1578130
 108.4737710  44.5490660  82.9035890 104.1365830  36.6210730  77.6911410
 103.3230440  36.1223900  77.6156720 103.9427780  37.4608980  77.2747760
 106.8514220  40.9930380  75.9873570 107.7393840  41.3047610  75.8124910
 106.8219310  40.1202630  75.5954150  97.9605310  45.8987790  81.3934440
  98.4783980  45.0956050  81.3391330  97.5089330  45.8366930  82.2351270
 102.8474810  47.1654070  76.6661740 103.1890510  47.9096300  76.1705060
 102.0187520  47.4785190  77.0286570  95.4449850  42.8649160  88.3060140
  95.0864790  43.5303010  88.8933480  95.1504410  42.0332710  88.6772760
 105.7302220  46.4869910  82.0307250 106.0826040  45.8898040  81.3708620
 104.8464550  46.1614140  82.2015500 101.8165500  47.2467600  79.4377660
 102.5036630  47.7936810  79.8185250 101.0297920  47.7908330  79.4727270
  93.9557900  42.8640420  74.9294740  94.8252750  43.1465220  75.2130660
  93.4648220  43.6776290  74.8143550 101.1192710  44.2513630  79.0503020
 101.5755490  45.0618880  79.2763210 100.7680920  43.9336770  79.8821510
 103.4225320  49.7619970  86.2795320 104.0667540  49.9679350  86.9568740
 103.7854760  49.0008370  85.8266170  97.0204490  34.5951280  79.5225540
  96.8919120  34.5869180  80.4710460  96.1966510  34.9334370  79.1716550
 104.6957400  47.7652320  84.9972770 105.3379630  47.0645480  85.1104940
 105.2206750  48.5450760  84.8169660 108.5413120  48.0500940  74.7211910
 108.3150700  47.3331380  75.3136550 108.1509320  47.8013380  73.8833660
 106.4695020  48.5647220  88.2008830 106.8051260  49.1513910  88.8786750
 105.5495360  48.4339930  88.4306620  94.3229150  52.0767800  75.4956370
  94.6826790  52.6757140  74.8413640  94.1821490  52.6227690  76.2691400
 108.1229370  45.9672880  76.3826070 107.8351070  46.4285570  77.1703950
 108.9181540  45.5070650  76.6510290 100.3397770  49.4599000  76.3130040
 100.3307870  50.1928690  75.6974550  99.4196130  49.2130580  76.4057000
  95.9404410  44.6813890  77.0576800  95.3332360  45.4212790  77.0672100
  96.4153760  44.7713250  76.2315000 105.5137200  38.8464710  86.7333690
 105.8818020  38.0259920  87.0613260 104.6535400  38.9066600  87.1489340
 108.8799230  37.8021650  77.5421250 108.2512390  37.9067320  76.8279480
 108.3851150  38.0218430  78.3315130 103.3257370  49.5227240  74.9755230
 103.4269350  49.3191230  74.0457210 102.4259110  49.2685520  75.1803010
 100.8483260  40.0807600  78.9579130 100.1399410  40.5493940  79.3992740
 101.1327740  39.4229610  79.5924320 102.4739190  41.5004300  86.9571660
 102.9724440  41.9750120  87.6223510 102.6162140  40.5767820  87.1641690
 104.8798690  36.8058260  80.3974920 104.7566470  36.8244390  79.4484430
 105.8283250  36.8537200  80.5173320 101.9675480  52.0413560  79.6702900
 102.2216980  52.0034950  78.7482270 101.0187960  51.9146890  79.6631150
  99.0518280  38.3892680  76.3329840  99.9008810  38.8262830  76.2670030
  98.6849550  38.7012940  77.1601900 107.9728060  42.9605440  81.2461410
 107.0318200  42.9755670  81.4209100 108.2872130  42.1741400  81.6921710
  97.9509700  44.6425040  74.8065370  98.7172970  44.5306400  75.3690800
  98.0284390  43.9463010  74.1542140  96.6456460  42.0750110  75.4898260
  96.7260050  41.1277620  75.6015660  97.5376210  42.4056990  75.5958920
  97.4471170  52.2245500  82.5932800  98.1833650  51.6760960  82.8641370
  97.8312090  53.0901510  82.4538790  94.3316650  48.2919070  78.4674310
  93.4056430  48.5340210  78.4579720  94.7973080  49.1193330  78.3459060
 100.5573480  51.3975810  74.4158370 101.3502090  51.6864640  73.9640160
 100.0377830  50.9667980  73.7370850 101.0750880  46.6179220  74.2800720
 100.9701520  46.0031570  75.0062100 100.9075100  46.0945110  73.4963730
 104.3153610  45.6799250  74.8842710 103.7663710  46.1268550  75.5285450
 104.9372870  45.1748500  75.4080380  99.9828730  44.6390170  76.7808010
 100.4045150  44.4730040  77.6239400 100.1079570  43.8290400  76.2863150
 102.4956370  43.6627780  74.0285110 103.0162030  42.9476800  73.6626260
 103.1424770  44.3013650  74.3285620 101.3989890  36.1422330  86.7003670
 100.9507190  36.1646590  85.8549220 100.7655090  35.7441350  87.2973970
 101.8049440  45.0376660  87.3216110 102.2237550  45.8809390  87.1492350
 100.8858070  45.1748700  87.0922890 106.4801240  43.3230030  87.2816460
 105.9536460  43.8472650  86.6781600 106.8232580  43.9557420  87.9126190
  98.8787630  40.7123400  73.7266170  98.6776690  39.8490760  74.0879510
  98.7079680  40.6256760  72.7887770  99.6556860  51.3429670  88.4373840
  99.1177950  52.0675730  88.1182540  99.9090820  50.8660010  87.6471180
 106.3575940  35.5231630  76.2553050 106.6378230  34.6799530  76.6112470
 105.5841670  35.7554740  76.7691800  97.6770430  37.8124020  73.7144050
  97.9796330  37.8191450  72.8063200  98.4165020  37.4621880  74.2111710
 102.5119070  52.5780880  88.6960490 102.4377770  53.4816020  89.0032860
 101.6097910  52.2592780  88.6682560 100.8955360  36.7558640  74.7000250
 100.5477360  36.0782630  74.1202700 101.0968130  36.2948150  75.5143640
 103.0604400  51.7439390  76.3186850 103.9555190  52.0824360  76.3405610
 103.0922030  51.0218800  75.6911130  96.7000560  47.1166440  74.5473850
  97.1375430  47.6596110  75.2031430  97.1848290  46.2913390  74.5570190
  93.9146360  49.9055470  81.9994110  94.2449370  49.0376530  81.7672750
  94.3437360  50.1113990  82.8299070  98.5108280  48.2364480  79.6596080
  98.2103820  48.1129450  80.5599990  98.4045770  47.3773070  79.2511810
  94.4036570  50.7726060  84.7375740  93.9667560  50.9526860  85.5699890
  94.9714250  51.5300680  84.5957460  94.2361000  43.2846290  81.0964620
  93.5809840  43.0157930  80.4524320  95.0738950  43.1750770  80.6466600
 108.7250390  46.9995040  87.1229210 107.9110230  47.4292200  87.3855000
 109.1324590  47.6113450  86.5098260 107.1851440  38.0787580  75.3183110
 107.6036320  37.8918560  74.4779770 106.8787500  37.2266630  75.6286040
  95.2736930  43.6698860  85.6367960  95.6409970  43.5826260  86.5163980
  94.7047750  42.9065410  85.5374820  93.4499080  40.4945220  77.0389950
  92.5463160  40.7575420  76.8641610  93.9339700  40.7656390  76.2589910
  95.9926290  39.5510760  74.9484330  96.7017990  39.1293980  74.4631610
  95.2766230  39.6185990  74.3167680  95.6400450  35.6050090  73.9886980
  96.3628580  36.1459030  74.3068200  95.9124970  35.3313510  73.1128520
  95.3292640  34.8556280  83.8909600  95.9768830  34.3053660  83.4504760
  95.7494480  35.1099430  84.7125410 108.7826440  51.7513640  80.6497480
 109.3785510  51.4298210  79.9731900 109.0404590  51.2785460  81.4410750
  95.0824640  35.0111950  86.6334920  94.7339460  35.4675770  87.3993100
  94.7512340  34.1169080  86.7157350 100.3895040  49.7391140  86.3997830
 100.1486400  50.0065700  85.5128350 101.3297680  49.9096870  86.4548690
  96.5277040  51.1293800  87.9185890  95.9337360  50.9978500  88.6575930
  96.5200880  50.2931940  87.4527990 105.9732060  34.4226030  86.1215920
 105.0991900  34.7561140  85.9188850 105.8642810  33.9499210  86.9467790
 106.8804040  36.6296900  87.5057640 106.5517400  35.8148660  87.1259370
 107.8286340  36.5866710  87.3823330 109.3338650  52.4008940  84.4795210
 108.8741620  53.1524750  84.1053230 108.7051110  51.6815410  84.4210010
  96.1589270  48.4952180  86.8693930  95.4323330  47.8757470  86.8019880
  96.2198420  48.8892790  85.9992010  99.7634370  50.7097180  83.6543340
 100.2799390  50.0984540  83.1291600 100.4131750  51.2125960  84.1454350
 102.5029870  51.6005670  84.4812320 102.7907680  51.3459970  83.6045330
 103.0153090  51.0483030  85.0717890 103.7206880  35.3395870  85.0608830
 102.9378670  35.8141370  85.3405590 103.4269810  34.4350700  84.9522010
 108.2727950  36.0418970  83.1057920 108.7136040  35.9864070  82.2579520
 108.0035540  36.9576980  83.1768100  94.4419270  51.8126570  80.0790690
  94.2741310  51.1797250  80.7772580  93.5753780  52.0185970  79.7284880
  95.0647290  35.6443350  77.5822550  95.8226650  35.7572230  77.0086580
  94.6024460  36.4812550  77.5365980 101.6061100  37.7582620  80.5724860
 100.7935610  37.3839510  80.2320740 102.1102740  37.0027700  80.8746050
 106.1086080  34.4225070  81.8107930 106.7115450  34.9945280  82.2856450
 105.3679070  34.9864510  81.5881830 109.2520680  34.8246630  77.0848210
 109.4471310  35.7230080  77.3515640 108.4650550  34.5933710  77.5781160
  96.0481970  50.5059800  77.5240830  95.5229590  50.8867830  76.8202790
  95.9726550  51.1310570  78.2450540  97.4372440  36.1707400  76.1224520
  97.9665200  35.3837200  75.9932470  98.0700760  36.8498590  76.3560050
  99.6310280  35.9082540  79.1769910  99.0013020  35.2069850  79.3440040
  99.0915420  36.6686670  78.9603070  98.6474940  52.4542180  76.3990080
  99.3793760  52.1701460  75.8513970  98.9068610  52.2155460  77.2889460
  97.8089730  48.5706910  76.4036410  97.1798610  49.0392010  76.9522240
  97.9237560  47.7256130  76.8382600 105.2639450  42.6212570  62.5537610
 105.1833500  41.7067180  62.2829320 104.8503870  43.1179640  61.8477320
 103.3957490  44.3991590  64.4346880 102.6199590  43.9192030  64.7245450
 104.0470420  43.7197240  64.2603040  97.4123320  44.7111400  65.3122640
  96.5808200  44.4560110  65.7119150  98.0204300  44.7822170  66.0480560
 107.4164920  48.8051780  63.2146010 106.9546450  48.0339020  63.5433180
 108.2290470  48.8317850  63.7198460  97.3924580  48.7451490  65.5080660
  97.6952620  47.8549230  65.3290880  98.1368170  49.3021710  65.2802910
  95.8215270  39.6713290  59.0965030  94.9331970  40.0129260  58.9944910
  96.1056460  39.4713610  58.2045860  93.7848280  42.2718940  64.9804730
  94.3564390  41.5041140  64.9808370  93.7849820  42.5707700  64.0711340
 103.6428230  51.0909790  62.8350000 103.0239670  51.5467290  62.2644440
 104.4980010  51.2461250  62.4339700 102.8366480  47.0748780  64.4417040
 102.7674760  46.1338720  64.2806170 103.5986340  47.1650190  65.0139610
  95.0273150  37.6803300  66.7673660  94.8475990  36.7829050  67.0476420
  94.6253230  38.2275170  67.4420610 103.8671650  39.8819160  64.6685970
 104.2436470  39.0091040  64.5559640 103.7691160  40.2177860  63.7776410
  97.9976660  38.2544790  60.1303410  98.1043410  39.1548520  60.4372170
  97.0869020  38.2062760  59.8398060 107.6495770  37.3769600  61.6014310
 108.4705390  36.8866170  61.6439790 107.6829850  37.9667260  62.3546150
  95.6459820  40.1763800  65.3756000  96.3269930  40.4402170  65.9943400
  95.3307870  39.3364670  65.7094010  99.8384390  41.2231160  64.4628590
 100.3462610  41.7212130  65.1033610 100.3697630  40.4466360  64.2867950
  98.1220490  35.8629720  68.7292010  98.1238930  36.3802110  67.9237910
  97.2924800  35.3859900  68.7061940 104.5091580  45.9749030  60.2281910
 103.8908850  46.4398480  59.6644630 105.0214830  46.6676510  60.6451420
  99.3723340  45.5024900  66.9065510  99.0392720  46.1293820  67.5486580
  99.5490020  46.0286780  66.1267180 107.8857250  39.3169980  64.3741850
 107.1812820  39.6054870  64.9544960 108.2469410  40.1270090  64.0141410
  97.8035820  37.5739680  66.7362460  98.1452630  38.4181730  66.4416330
  96.8651630  37.7223420  66.8527800  98.5842440  47.4705700  68.7214690
  99.2016440  48.1456780  68.4399140  97.7235560  47.8793680  68.6302190
  93.8774780  46.6605560  57.6021540  93.5002760  47.1492660  56.8706440
  94.1347850  47.3330840  58.2328070 101.4863710  35.0621950  63.0607050
 101.7938690  34.5068840  62.3442550 100.5564410  35.1966410  62.8780040
 107.0378770  50.7789240  65.3514510 107.0505930  50.3751530  64.4836770
 106.4853990  51.5536530  65.2475940 108.3324190  47.5005460  60.4404680
 108.2220520  46.5579790  60.5654100 108.3292440  47.8621100  61.3267440
 106.4364210  45.6819080  66.6797120 106.8533000  45.4679190  65.8450580
 107.1604030  45.9391870  67.2505740 103.8744470  43.1270780  59.7967170
 102.9473750  43.0608160  60.0255640 104.0269290  44.0650910  59.6822410
 103.8613550  39.3987780  56.7934330 102.9217220  39.5601740  56.8786790
 104.1796810  40.1173460  56.2470320 107.9041760  44.6891080  60.3002420
 107.2854180  44.3510630  59.6528720 107.8866210  44.0450840  61.0081610
 107.3468320  40.8675620  67.7168230 106.9339500  41.6929330  67.9708220
 106.6144270  40.2820660  67.5244590  99.4801110  43.6535520  62.5786900
  99.0758110  42.9412770  62.0832800  99.5664230  43.3088760  63.4674940
  99.9482810  47.3403080  64.7426110  99.6511100  46.7348550  64.0633890
 100.8982630  47.3780390  64.6315470  98.1929730  40.4278730  66.3585940
  98.7444320  40.5374070  65.5839190  98.7073240  40.8016330  67.0741170
 108.0368420  50.9134950  68.4049210 107.5598980  51.7207140  68.2121820
 107.3530210  50.2613280  68.5575420  99.0401240  47.0784770  71.3933910
  98.1429770  47.3024740  71.6407310  99.0654110  47.2019710  70.4445310
 106.0806460  43.9277890  57.3075170 106.5199740  43.0900320  57.1612990
 106.7934880  44.5607290  57.3939310  97.8672460  43.9498090  69.9691280
  97.7280230  44.8220890  70.3378680  96.9853820  43.6070900  69.8239220
 104.1901840  48.8673960  61.2756410 104.6297750  49.6098290  60.8611800
 104.1288730  49.1100530  62.1995370  99.6652810  49.8919790  72.1776430
  99.6368240  50.2962740  71.3104860  99.5017780  48.9630150  72.0148030
  96.1805740  42.5480500  60.0793550  96.0603340  43.2742590  59.4674820
  95.8706630  41.7783410  59.6021460  93.8191110  45.7195640  65.8862190
  93.8971530  45.8544410  64.9417910  94.4332790  45.0111530  66.0790310
  95.0638740  47.4195830  62.2968370  94.6566820  47.5610420  61.4421970
  95.9551750  47.1355990  62.0939580 104.8817620  51.5687740  69.2035420
 105.3962290  51.4795750  70.0057850 104.0386700  51.9147440  69.4963330
 106.8572020  51.8543080  58.6319420 106.6973160  51.5646020  59.5301250
 106.6918730  51.0783210  58.0964650  99.3360400  51.6341610  60.4091040
  99.1602880  50.7177150  60.1958840  98.4816140  51.9928900  60.6488840
 106.5598150  49.3630640  57.1917420 105.8663310  49.3607930  56.5319700
 107.3021010  48.9389960  56.7611590 106.1248080  50.9893350  61.2665910
 106.5805030  50.2082730  61.5804530 106.4640600  51.7000170  61.8107090
  93.8750630  46.7609810  68.4256650  94.0381670  46.2915170  67.6076020
  94.3403080  46.2533370  69.0905490  98.6469400  35.8915570  63.4617220
  98.2037550  36.6725110  63.1301740  99.2054390  36.2145460  64.1688160
 102.9339210  38.7584090  69.0652540 102.4718580  38.9667110  69.8772480
 102.5317320  37.9443440  68.7623210 107.9343720  39.9793040  70.1949200
 107.0837310  39.6798790  70.5158270 107.7745510  40.2235050  69.2833020
 105.0293430  41.4794790  72.2947990 105.3546840  40.6458540  71.9550220
 105.8173760  42.0023310  72.4426320 101.7628220  35.5126270  58.3423050
 101.1382400  35.5086140  59.0676360 101.6758340  34.6457230  57.9459020
 100.6845300  36.4362900  65.3206820 100.9817630  37.3425730  65.2398840
 101.2330860  35.9481680  64.7066390  98.4383620  41.0149140  61.1898470
  98.2124540  40.7986310  62.0945090  97.6576150  41.4477600  60.8444440
 105.6681380  41.0212510  59.7889120 105.0690270  41.7448310  59.6052740
 106.2160990  40.9589290  59.0065570 100.8782830  41.9134720  71.8558740
 100.7826430  40.9729450  71.7059140 101.7214810  42.1349790  71.4606810
 104.2746250  39.6576050  61.8192400 104.6675820  39.9748250  61.0061090
 104.6363100  38.7787930  61.9336920  96.0093370  38.3248390  70.0092520
  95.6156760  39.1723600  70.2165300  95.3211770  37.6874760  70.2001160
 102.5838420  38.4083360  73.0789260 101.8936740  38.2155560  73.7135350
 103.3270720  38.6918000  73.6113560  93.3110420  36.2476850  64.0422600
  93.0223470  36.8179710  64.7547580  94.0556180  35.7681300  64.4053830
  93.4980650  40.1896970  55.2525320  93.4155320  41.1327730  55.3940310
  93.1463710  40.0471880  54.3737670 104.8601390  42.2481800  65.9143180
 104.1282510  42.7568610  66.2633280 104.4625730  41.4311780  65.6131960
 101.2978780  38.9236000  64.3195670 101.3014840  38.4825950  63.4700210
 102.1929900  39.2453330  64.4267490  97.1481160  38.8062490  63.2789880
  96.8081210  39.2837720  64.0356930  96.3858480  38.3527610  62.9190980
 101.3598930  39.9248080  57.3102430 101.4811750  39.8834560  58.2588250
 100.9747440  40.7872230  57.1549160 105.3227300  37.7015480  65.3266120
 105.3400040  38.1524130  66.1707970 105.0742880  36.8021120  65.5399560
 100.3720430  42.2349220  56.7085730  99.8037330  41.7867470  56.0821640
 101.0809430  42.5942000  56.1750880 108.7498050  35.1147660  71.1652500
 109.0743820  34.3837320  71.6910480 108.7854560  34.7961300  70.2633490
  95.4489610  46.1361240  70.5852460  95.0644400  45.4954910  71.1835420
  95.7601800  46.8397360  71.1547190 101.5986750  42.9837780  66.0661080
 101.9656880  42.5096350  66.8122420 101.4091810  43.8579350  66.4069420
  94.4627240  37.7281470  62.1954550  94.1774160  37.3637140  63.0333170
  94.4006100  36.9961930  61.5817690  99.3886120  42.0246420  68.3845290
  99.0843190  42.9038400  68.6095650 100.3432580  42.0846210  68.4202730
  97.9167910  46.2307410  58.9812140  97.1430170  45.6905030  58.8210860
  98.6462540  45.7114020  58.6429900 108.6755890  45.2272770  64.7738530
 109.3955010  45.7228060  64.3834640 108.4737710  44.5490660  64.1292400
 104.1365830  36.6210730  58.9167920 103.3230440  36.1223900  58.8413230
 103.9427780  37.4608980  58.5004270 104.0574690  45.2981830  70.6607530
 103.9912000  44.3777500  70.4065120 103.4279830  45.3957270  71.3752170
 106.8514220  40.9930380  57.2130080 107.7393840  41.3047610  57.0381420
 106.8219310  40.1202630  56.8210660  97.9605310  45.8987790  62.6190950
  98.4783980  45.0956050  62.5647840  97.5089330  45.8366930  63.4607780
 102.8474810  47.1654070  57.8918250 103.1890510  47.9096300  57.3961570
 102.0187520  47.4785190  58.2543080  95.4449850  42.8649160  69.5316650
  95.0864790  43.5303010  70.1189990  95.1504410  42.0332710  69.9029270
  98.6462970  43.3233400  72.4156200  98.3463110  43.4690580  71.5184020
  99.4174210  42.7638690  72.3229590 103.9891420  48.1202400  70.4111330
 104.0035960  47.1883360  70.1930240 103.2816520  48.2062160  71.0501100
 105.7302220  46.4869910  63.2563760 106.0826040  45.8898040  62.5965130
 104.8464550  46.1614140  63.4272010 101.8165500  47.2467600  60.6634170
 102.5036630  47.7936810  61.0441760 101.0297920  47.7908330  60.6983780
  93.9557900  42.8640420  56.1551250  94.8252750  43.1465220  56.4387170
  93.4648220  43.6776290  56.0400060 101.1192710  44.2513630  60.2759530
 101.5755490  45.0618880  60.5019720 100.7680920  43.9336770  61.1078020
 103.4225320  49.7619970  67.5051830 104.0667540  49.9679350  68.1825250
 103.7854760  49.0008370  67.0522680  97.0204490  34.5951280  60.7482050
  96.8919120  34.5869180  61.6966970  96.1966510  34.9334370  60.3973060
 104.6957400  47.7652320  66.2229280 105.3379630  47.0645480  66.3361450
 105.2206750  48.5450760  66.0426170 108.5413120  48.0500940  55.9468420
 108.3150700  47.3331380  56.5393060 108.1509320  47.8013380  55.1090170
 106.4695020  48.5647220  69.4265340 106.8051260  49.1513910  70.1043260
 105.5495360  48.4339930  69.6563130  94.3229150  52.0767800  56.7212880
  94.6826790  52.6757140  56.0670150  94.1821490  52.6227690  57.4947910
  94.0198420  36.3542400  70.2088750  93.3056940  36.5539320  70.8141360
  94.4393460  35.5781970  70.5803550 108.1229370  45.9672880  57.6082580
 107.8351070  46.4285570  58.3960460 108.9181540  45.5070650  57.8766800
  94.3071010  50.3422660  71.1955280  94.4162130  49.4017400  71.0550670
  93.6551570  50.6077410  70.5469010 102.2983600  48.6138550  72.5953400
 101.9780470  47.8947790  73.1399090 101.6241960  49.2893620  72.6689460
 100.3397770  49.4599000  57.5386550 100.3307870  50.1928690  56.9231060
  99.4196130  49.2130580  57.6313510  95.9404410  44.6813890  58.2833310
  95.3332360  45.4212790  58.2928610  96.4153760  44.7713250  57.4571510
 105.5137200  38.8464710  67.9590200 105.8818020  38.0259920  68.2869770
 104.6535400  38.9066600  68.3745850 108.8799230  37.8021650  58.7677760
 108.2512390  37.9067320  58.0535990 108.3851150  38.0218430  59.5571640
 103.3257370  49.5227240  56.2011740 103.4269350  49.3191230  55.2713720
 102.4259110  49.2685520  56.4059520 100.8483260  40.0807600  60.1835640
 100.1399410  40.5493940  60.6249250 101.1327740  39.4229610  60.8180830
 102.4739190  41.5004300  68.1828170 102.9724440  41.9750120  68.8480020
 102.6162140  40.5767820  68.3898200 104.8798690  36.8058260  61.6231430
 104.7566470  36.8244390  60.6740940 105.8283250  36.8537200  61.7429830
 101.9675480  52.0413560  60.8959410 102.2216980  52.0034950  59.9738780
 101.0187960  51.9146890  60.8887660  99.0518280  38.3892680  57.5586350
  99.9008810  38.8262830  57.4926540  98.6849550  38.7012940  58.3858410
 107.9728060  42.9605440  62.4717920 107.0318200  42.9755670  62.6465610
 108.2872130  42.1741400  62.9178220  97.9509700  44.6425040  56.0321880
  98.7172970  44.5306400  56.5947310  98.0284390  43.9463010  55.3798650
  96.6456460  42.0750110  56.7154770  96.7260050  41.1277620  56.8272170
  97.5376210  42.4056990  56.8215430  97.4471170  52.2245500  63.8189310
  98.1833650  51.6760960  64.0897880  97.8312090  53.0901510  63.6795300
  94.3316650  48.2919070  59.6930820  93.4056430  48.5340210  59.6836230
  94.7973080  49.1193330  59.5715570  96.4529450  51.4091570  73.0074890
  97.2542180  51.7303620  73.4210290  95.9381270  51.0487150  73.7294800
 100.5573480  51.3975810  55.6414880 101.3502090  51.6864640  55.1896670
 100.0377830  50.9667980  54.9627360 105.2894080  47.5171440  72.9550300
 104.6832240  47.5403040  72.2146050 104.9848190  46.7854480  73.4917550
 106.7194450  51.2451730  71.5659710 107.6716200  51.1609750  71.5159950
 106.5722670  51.9093440  72.2393500  94.1727260  43.8965030  71.9510940
  94.6766280  43.3172310  72.5227170  93.4334680  44.1805260  72.4887310
 101.0750880  46.6179220  55.5057230 100.9701520  46.0031570  56.2318610
 100.9075100  46.0945110  54.7220240 101.2265200  45.3036020  71.4846460
 100.4610870  45.8721020  71.4001130 101.4081160  45.0112230  70.5914690
 104.3153610  45.6799250  56.1099220 103.7663710  46.1268550  56.7541960
 104.9372870  45.1748500  56.6336890 108.3688550  47.0341350  72.0421480
 109.1098020  47.3717110  71.5388940 107.6061230  47.2033410  71.4891250
  96.2050340  42.0394620  72.8461010  96.2455680  41.7408490  73.7546240
  97.0595840  42.4402230  72.6868530  99.9828730  44.6390170  58.0064520
 100.4045150  44.4730040  58.8495910 100.1079570  43.8290400  57.5119660
  98.1456150  40.6186720  70.8135500  97.6152610  40.1277670  70.1858840
  98.8144220  41.0470920  70.2793430 102.4956370  43.6627780  55.2541620
 103.0162030  42.9476800  54.8882770 103.1424770  44.3013650  55.5542130
 107.0434210  45.0856180  70.5776690 107.4575230  45.2401260  71.4267110
 106.1085210  45.2111400  70.7402470 107.5156380  42.4252340  72.5815840
 108.0977150  41.6704660  72.4936320 107.6918150  42.9559780  71.8047320
  98.6328450  37.5849090  70.8932790  98.5385320  36.9669840  70.1683660
  98.0525840  38.3115380  70.6662700 101.3989890  36.1422330  67.9260180
 100.9507190  36.1646590  67.0805730 100.7655090  35.7441350  68.5230480
 101.8049440  45.0376660  68.5472620 102.2237550  45.8809390  68.3748860
 100.8858070  45.1748700  68.3179400 104.1413340  42.7692840  69.9310460
 104.2609550  42.1733980  70.6705300 105.0007340  42.8062530  69.5111760
 106.4801240  43.3230030  68.5072970 105.9536460  43.8472650  67.9038110
 106.8232580  43.9557420  69.1382700  98.8787630  40.7123400  54.9522680
  98.6776690  39.8490760  55.3136020  98.7079680  40.6256760  54.0144280
  99.6556860  51.3429670  69.6630350  99.1177950  52.0675730  69.3439050
  99.9090820  50.8660010  68.8727690 100.9082110  39.3114190  71.1886280
 101.4981800  39.0030040  71.8764100 100.0902350  38.8393940  71.3446180
 105.7275540  38.9280000  71.4219300 105.0391060  38.2661540  71.3569290
 106.4481560  38.4818270  71.8667760 106.3575940  35.5231630  57.4809560
 106.6378230  34.6799530  57.8368980 105.5841670  35.7554740  57.9948310
  97.6770430  37.8124020  54.9400560  97.9796330  37.8191450  54.0319710
  98.4165020  37.4621880  55.4368220 102.5119070  52.5780880  69.9217000
 102.4377770  53.4816020  70.2289370 101.6097910  52.2592780  69.8939070
 100.8955360  36.7558640  55.9256760 100.5477360  36.0782630  55.3459210
 101.0968130  36.2948150  56.7400150 103.0604400  51.7439390  57.5443360
 103.9555190  52.0824360  57.5662120 103.0922030  51.0218800  56.9167640
  96.7000560  47.1166440  55.7730360  97.1375430  47.6596110  56.4287940
  97.1848290  46.2913390  55.7826700  93.9146360  49.9055470  63.2250620
  94.2449370  49.0376530  62.9929260  94.3437360  50.1113990  64.0555580
  98.5108280  48.2364480  60.8852590  98.2103820  48.1129450  61.7856500
  98.4045770  47.3773070  60.4768320  94.4036570  50.7726060  65.9632250
  93.9667560  50.9526860  66.7956400  94.9714250  51.5300680  65.8213970
  94.2361000  43.2846290  62.3221130  93.5809840  43.0157930  61.6780830
  95.0738950  43.1750770  61.8723110 108.7250390  46.9995040  68.3485720
 107.9110230  47.4292200  68.6111510 109.1324590  47.6113450  67.7354770
 107.1851440  38.0787580  56.5439620 107.6036320  37.8918560  55.7036280
 106.8787500  37.2266630  56.8542550  95.2736930  43.6698860  66.8624470
  95.6409970  43.5826260  67.7420490  94.7047750  42.9065410  66.7631330
  94.8252930  40.5807950  70.7682890  93.9308980  40.5474710  71.1076600
  95.3650480  40.7794740  71.5334140 108.5128860  37.3639670  72.6534640
 109.3899040  37.3723070  73.0368640 108.5249700  36.6270510  72.0426990
  93.4499080  40.4945220  58.2646460  92.5463160  40.7575420  58.0898120
  93.9339700  40.7656390  57.4846420  95.9926290  39.5510760  56.1740840
  96.7017990  39.1293980  55.6888120  95.2766230  39.6185990  55.5424190
  95.6400450  35.6050090  55.2143490  96.3628580  36.1459030  55.5324710
  95.9124970  35.3313510  54.3385030  95.3292640  34.8556280  65.1166110
  95.9768830  34.3053660  64.6761270  95.7494480  35.1099430  65.9381920
 108.7826440  51.7513640  61.8753990 109.3785510  51.4298210  61.1988410
 109.0404590  51.2785460  62.6667260  95.0824640  35.0111950  67.8591430
  94.7339460  35.4675770  68.6249610  94.7512340  34.1169080  67.9413860
  96.6889010  48.1831550  72.0244620  96.6458640  47.8124460  72.9059080
  96.8200020  49.1209120  72.1646440 100.3895040  49.7391140  67.6254340
 100.1486400  50.0065700  66.7384860 101.3297680  49.9096870  67.6805200
 102.5949460  36.2023830  71.3810850 102.5338350  36.7945660  72.1306260
 103.5349840  36.0949790  71.2361110 105.2324020  35.8593890  71.0203140
 105.8464430  36.1773180  70.3584220 105.7773580  35.3742480  71.6399000
  95.7545280  34.5388150  71.1342200  96.3028270  34.3576200  70.3708310
  95.8200590  33.7482260  71.6698510  96.5277040  51.1293800  69.1442400
  95.9337360  50.9978500  69.8832440  96.5200880  50.2931940  68.6784500
 105.9732060  34.4226030  67.3472430 105.0991900  34.7561140  67.1445360
 105.8642810  33.9499210  68.1724300 106.8804040  36.6296900  68.7314150
 106.5517400  35.8148660  68.3515880 107.8286340  36.5866710  68.6079840
 109.3338650  52.4008940  65.7051720 108.8741620  53.1524750  65.3309740
 108.7051110  51.6815410  65.6466520  96.1589270  48.4952180  68.0950440
  95.4323330  47.8757470  68.0276390  96.2198420  48.8892790  67.2248520
  99.7634370  50.7097180  64.8799850 100.2799390  50.0984540  64.3548110
 100.4131750  51.2125960  65.3710860 102.5029870  51.6005670  65.7068830
 102.7907680  51.3459970  64.8301840 103.0153090  51.0483030  66.2974400
 103.7206880  35.3395870  66.2865340 102.9378670  35.8141370  66.5662100
 103.4269810  34.4350700  66.1778520 108.2727950  36.0418970  64.3314430
 108.7136040  35.9864070  63.4836030 108.0035540  36.9576980  64.4024610
  94.4419270  51.8126570  61.3047200  94.2741310  51.1797250  62.0029090
  93.5753780  52.0185970  60.9541390  95.0647290  35.6443350  58.8079060
  95.8226650  35.7572230  58.2343090  94.6024460  36.4812550  58.7622490
 101.6061100  37.7582620  61.7981370 100.7935610  37.3839510  61.4577250
 102.1102740  37.0027700  62.1002560 106.1086080  34.4225070  63.0364440
 106.7115450  34.9945280  63.5112960 105.3679070  34.9864510  62.8138340
 109.2520680  34.8246630  58.3104720 109.4471310  35.7230080  58.5772150
 108.4650550  34.5933710  58.8037670  96.0481970  50.5059800  58.7497340
  95.5229590  50.8867830  58.0459300  95.9726550  51.1310570  59.4707050
  97.4372440  36.1707400  57.3481030  97.9665200  35.3837200  57.2188980
  98.0700760  36.8498590  57.5816560  99.6310280  35.9082540  60.4026420
  99.0013020  35.2069850  60.5696550  99.0915420  36.6686670  60.1859580
 102.5702230  52.5221770  73.0737030 103.4969540  52.2866040  73.1172990
 102.5552660  53.3493770  72.5923060  99.7565840  35.1866520  72.8378910
  99.4750110  35.6900120  72.0739730 100.1385540  34.3888270  72.4721040
  98.6474940  52.4542180  57.6246590  99.3793760  52.1701460  57.0770480
  98.9068610  52.2155460  58.5145970  97.8089730  48.5706910  57.6292920
  97.1798610  49.0392010  58.1778750  97.9237560  47.7256130  58.0639110
 106.3581300  34.6020100  73.4159380 106.2446750  34.9214710  74.3110900
 107.1751040  35.0032610  73.1196660 105.2639450  42.6212570  43.7794120
 105.1833500  41.7067180  43.5085830 104.8503870  43.1179640  43.0733830
 103.3957490  44.3991590  45.6603390 102.6199590  43.9192030  45.9501960
 104.0470420  43.7197240  45.4859550 107.4164920  48.8051780  44.4402520
 106.9546450  48.0339020  44.7689690 108.2290470  48.8317850  44.9454970
  95.8215270  39.6713290  40.3221540  94.9331970  40.0129260  40.2201420
  96.1056460  39.4713610  39.4302370 103.6428230  51.0909790  44.0606510
 103.0239670  51.5467290  43.4900950 104.4980010  51.2461250  43.6596210
 102.8366480  47.0748780  45.6673550 102.7674760  46.1338720  45.5062680
 103.5986340  47.1650190  46.2396120 103.8671650  39.8819160  45.8942480
 104.2436470  39.0091040  45.7816150 103.7691160  40.2177860  45.0032920
  97.9976660  38.2544790  41.3559920  98.1043410  39.1548520  41.6628680
  97.0869020  38.2062760  41.0654570 107.6495770  37.3769600  42.8270820
 108.4705390  36.8866170  42.8696300 107.6829850  37.9667260  43.5802660
  98.1220490  35.8629720  49.9548520  98.1238930  36.3802110  49.1494420
  97.2924800  35.3859900  49.9318450 104.5091580  45.9749030  41.4538420
 103.8908850  46.4398480  40.8901140 105.0214830  46.6676510  41.8707930
  99.3723340  45.5024900  48.1322020  99.0392720  46.1293820  48.7743090
  99.5490020  46.0286780  47.3523690 107.8857250  39.3169980  45.5998360
 107.1812820  39.6054870  46.1801470 108.2469410  40.1270090  45.2397920
  97.8035820  37.5739680  47.9618970  98.1452630  38.4181730  47.6672840
  96.8651630  37.7223420  48.0784310  98.5842440  47.4705700  49.9471200
  99.2016440  48.1456780  49.6655650  97.7235560  47.8793680  49.8558700
  93.8774780  46.6605560  38.8278050  93.5002760  47.1492660  38.0962950
  94.1347850  47.3330840  39.4584580 101.4863710  35.0621950  44.2863560
 101.7938690  34.5068840  43.5699060 100.5564410  35.1966410  44.1036550
 107.0378770  50.7789240  46.5771020 107.0505930  50.3751530  45.7093280
 106.4853990  51.5536530  46.4732450 108.3324190  47.5005460  41.6661190
 108.2220520  46.5579790  41.7910610 108.3292440  47.8621100  42.5523950
 106.4364210  45.6819080  47.9053630 106.8533000  45.4679190  47.0707090
 107.1604030  45.9391870  48.4762250 103.8744470  43.1270780  41.0223680
 102.9473750  43.0608160  41.2512150 104.0269290  44.0650910  40.9078920
 103.8613550  39.3987780  38.0190840 102.9217220  39.5601740  38.1043300
 104.1796810  40.1173460  37.4726830 107.9041760  44.6891080  41.5258930
 107.2854180  44.3510630  40.8785230 107.8866210  44.0450840  42.2338120
 107.3468320  40.8675620  48.9424740 106.9339500  41.6929330  49.1964730
 106.6144270  40.2820660  48.7501100  99.4801110  43.6535520  43.8043410
  99.0758110  42.9412770  43.3089310  99.5664230  43.3088760  44.6931450
  99.9482810  47.3403080  45.9682620  99.6511100  46.7348550  45.2890400
 100.8982630  47.3780390  45.8571980 108.0368420  50.9134950  49.6305720
 107.5598980  51.7207140  49.4378330 107.3530210  50.2613280  49.7831930
  99.0401240  47.0784770  52.6190420  98.1429770  47.3024740  52.8663820
  99.0654110  47.2019710  51.6701820 106.0806460  43.9277890  38.5331680
 106.5199740  43.0900320  38.3869500 106.7934880  44.5607290  38.6195820
 104.1901840  48.8673960  42.5012920 104.6297750  49.6098290  42.0868310
 104.1288730  49.1100530  43.4251880  99.6652810  49.8919790  53.4032940
  99.6368240  50.2962740  52.5361370  99.5017780  48.9630150  53.2404540
 104.8817620  51.5687740  50.4291930 105.3962290  51.4795750  51.2314360
 104.0386700  51.9147440  50.7219840 106.8572020  51.8543080  39.8575930
 106.6973160  51.5646020  40.7557760 106.6918730  51.0783210  39.3221160
  99.3360400  51.6341610  41.6347550  99.1602880  50.7177150  41.4215350
  98.4816140  51.9928900  41.8745350 106.5598150  49.3630640  38.4173930
 105.8663310  49.3607930  37.7576210 107.3021010  48.9389960  37.9868100
 106.1248080  50.9893350  42.4922420 106.5805030  50.2082730  42.8061040
 106.4640600  51.7000170  43.0363600  93.8750630  46.7609810  49.6513160
  94.0381670  46.2915170  48.8332530  94.3403080  46.2533370  50.3162000
  98.6469400  35.8915570  44.6873730  98.2037550  36.6725110  44.3558250
  99.2054390  36.2145460  45.3944670 102.9339210  38.7584090  50.2909050
 102.4718580  38.9667110  51.1028990 102.5317320  37.9443440  49.9879720
 107.9343720  39.9793040  51.4205710 107.0837310  39.6798790  51.7414780
 107.7745510  40.2235050  50.5089530 105.0293430  41.4794790  53.5204500
 105.3546840  40.6458540  53.1806730 105.8173760  42.0023310  53.6682830
 101.7628220  35.5126270  39.5679560 101.1382400  35.5086140  40.2932870
 101.6758340  34.6457230  39.1715530 100.6845300  36.4362900  46.5463330
 100.9817630  37.3425730  46.4655350 101.2330860  35.9481680  45.9322900
 105.6681380  41.0212510  41.0145630 105.0690270  41.7448310  40.8309250
 106.2160990  40.9589290  40.2322080 100.8782830  41.9134720  53.0815250
 100.7826430  40.9729450  52.9315650 101.7214810  42.1349790  52.6863320
 104.2746250  39.6576050  43.0448910 104.6675820  39.9748250  42.2317600
 104.6363100  38.7787930  43.1593430 102.5838420  38.4083360  54.3045770
 101.8936740  38.2155560  54.9391860 103.3270720  38.6918000  54.8370070
  93.4980650  40.1896970  36.4781830  93.4155320  41.1327730  36.6196820
  93.1463710  40.0471880  35.5994180 104.8601390  42.2481800  47.1399690
 104.1282510  42.7568610  47.4889790 104.4625730  41.4311780  46.8388470
 101.2978780  38.9236000  45.5452180 101.3014840  38.4825950  44.6956720
 102.1929900  39.2453330  45.6524000 101.3598930  39.9248080  38.5358940
 101.4811750  39.8834560  39.4844760 100.9747440  40.7872230  38.3805670
 105.3227300  37.7015480  46.5522630 105.3400040  38.1524130  47.3964480
 105.0742880  36.8021120  46.7656070 100.3720430  42.2349220  37.9342240
  99.8037330  41.7867470  37.3078150 101.0809430  42.5942000  37.4007390
 108.7498050  35.1147660  52.3909010 109.0743820  34.3837320  52.9166990
 108.7854560  34.7961300  51.4890000  95.4489610  46.1361240  51.8108970
  95.0644400  45.4954910  52.4091930  95.7601800  46.8397360  52.3803700
 101.5986750  42.9837780  47.2917590 101.9656880  42.5096350  48.0378930
 101.4091810  43.8579350  47.6325930 108.6755890  45.2272770  45.9995040
 109.3955010  45.7228060  45.6091150 108.4737710  44.5490660  45.3548910
 104.1365830  36.6210730  40.1424430 103.3230440  36.1223900  40.0669740
 103.9427780  37.4608980  39.7260780 104.0574690  45.2981830  51.8864040
 103.9912000  44.3777500  51.6321630 103.4279830  45.3957270  52.6008680
 106.8514220  40.9930380  38.4386590 107.7393840  41.3047610  38.2637930
 106.8219310  40.1202630  38.0467170 102.8474810  47.1654070  39.1174760
 103.1890510  47.9096300  38.6218080 102.0187520  47.4785190  39.4799590
  98.6462970  43.3233400  53.6412710  98.3463110  43.4690580  52.7440530
  99.4174210  42.7638690  53.5486100 103.9891420  48.1202400  51.6367840
 104.0035960  47.1883360  51.4186750 103.2816520  48.2062160  52.2757610
 105.7302220  46.4869910  44.4820270 106.0826040  45.8898040  43.8221640
 104.8464550  46.1614140  44.6528520 101.8165500  47.2467600  41.8890680
 102.5036630  47.7936810  42.2698270 101.0297920  47.7908330  41.9240290
  93.9557900  42.8640420  37.3807760  94.8252750  43.1465220  37.6643680
  93.4648220  43.6776290  37.2656570 101.1192710  44.2513630  41.5016040
 101.5755490  45.0618880  41.7276230 100.7680920  43.9336770  42.3334530
 103.4225320  49.7619970  48.7308340 104.0667540  49.9679350  49.4081760
 103.7854760  49.0008370  48.2779190  97.0204490  34.5951280  41.9738560
  96.8919120  34.5869180  42.9223480  96.1966510  34.9334370  41.6229570
 104.6957400  47.7652320  47.4485790 105.3379630  47.0645480  47.5617960
 105.2206750  48.5450760  47.2682680 108.5413120  48.0500940  37.1724930
 108.3150700  47.3331380  37.7649570 108.1509320  47.8013380  36.3346680
 106.4695020  48.5647220  50.6521850 106.8051260  49.1513910  51.3299770
 105.5495360  48.4339930  50.8819640  94.3229150  52.0767800  37.9469390
  94.6826790  52.6757140  37.2926660  94.1821490  52.6227690  38.7204420
 108.1229370  45.9672880  38.8339090 107.8351070  46.4285570  39.6216970
 108.9181540  45.5070650  39.1023310  94.3071010  50.3422660  52.4211790
  94.4162130  49.4017400  52.2807180  93.6551570  50.6077410  51.7725520
 102.2983600  48.6138550  53.8209910 101.9780470  47.8947790  54.3655600
 101.6241960  49.2893620  53.8945970 100.3397770  49.4599000  38.7643060
 100.3307870  50.1928690  38.1487570  99.4196130  49.2130580  38.8570020
 105.5137200  38.8464710  49.1846710 105.8818020  38.0259920  49.5126280
 104.6535400  38.9066600  49.6002360 108.8799230  37.8021650  39.9934270
 108.2512390  37.9067320  39.2792500 108.3851150  38.0218430  40.7828150
 103.3257370  49.5227240  37.4268250 103.4269350  49.3191230  36.4970230
 102.4259110  49.2685520  37.6316030 100.8483260  40.0807600  41.4092150
 100.1399410  40.5493940  41.8505760 101.1327740  39.4229610  42.0437340
 102.4739190  41.5004300  49.4084680 102.9724440  41.9750120  50.0736530
 102.6162140  40.5767820  49.6154710 104.8798690  36.8058260  42.8487940
 104.7566470  36.8244390  41.8997450 105.8283250  36.8537200  42.9686340
 101.9675480  52.0413560  42.1215920 102.2216980  52.0034950  41.1995290
 101.0187960  51.9146890  42.1144170  99.0518280  38.3892680  38.7842860
  99.9008810  38.8262830  38.7183050  98.6849550  38.7012940  39.6114920
 107.9728060  42.9605440  43.6974430 107.0318200  42.9755670  43.8722120
 108.2872130  42.1741400  44.1434730  97.9509700  44.6425040  37.2578390
  98.7172970  44.5306400  37.8203820  98.0284390  43.9463010  36.6055160
  96.6456460  42.0750110  37.9411280  96.7260050  41.1277620  38.0528680
  97.5376210  42.4056990  38.0471940  97.4471170  52.2245500  45.0445820
  98.1833650  51.6760960  45.3154390  97.8312090  53.0901510  44.9051810
  96.4529450  51.4091570  54.2331400  97.2542180  51.7303620  54.6466800
  95.9381270  51.0487150  54.9551310 100.5573480  51.3975810  36.8671390
 101.3502090  51.6864640  36.4153180 100.0377830  50.9667980  36.1883870
 105.2894080  47.5171440  54.1806810 104.6832240  47.5403040  53.4402560
 104.9848190  46.7854480  54.7174060 106.7194450  51.2451730  52.7916220
 107.6716200  51.1609750  52.7416460 106.5722670  51.9093440  53.4650010
  94.1727260  43.8965030  53.1767450  94.6766280  43.3172310  53.7483680
  93.4334680  44.1805260  53.7143820 101.0750880  46.6179220  36.7313740
 100.9701520  46.0031570  37.4575120 100.9075100  46.0945110  35.9476750
 101.2265200  45.3036020  52.7102970 100.4610870  45.8721020  52.6257640
 101.4081160  45.0112230  51.8171200 104.3153610  45.6799250  37.3355730
 103.7663710  46.1268550  37.9798470 104.9372870  45.1748500  37.8593400
 108.3688550  47.0341350  53.2677990 109.1098020  47.3717110  52.7645450
 107.6061230  47.2033410  52.7147760  96.2050340  42.0394620  54.0717520
  96.2455680  41.7408490  54.9802750  97.0595840  42.4402230  53.9125040
  99.9828730  44.6390170  39.2321030 100.4045150  44.4730040  40.0752420
 100.1079570  43.8290400  38.7376170  98.1456150  40.6186720  52.0392010
  97.6152610  40.1277670  51.4115350  98.8144220  41.0470920  51.5049940
 102.4956370  43.6627780  36.4798130 103.0162030  42.9476800  36.1139280
 103.1424770  44.3013650  36.7798640 107.0434210  45.0856180  51.8033200
 107.4575230  45.2401260  52.6523620 106.1085210  45.2111400  51.9658980
 107.5156380  42.4252340  53.8072350 108.0977150  41.6704660  53.7192830
 107.6918150  42.9559780  53.0303830  98.6328450  37.5849090  52.1189300
  98.5385320  36.9669840  51.3940170  98.0525840  38.3115380  51.8919210
 101.3989890  36.1422330  49.1516690 100.9507190  36.1646590  48.3062240
 100.7655090  35.7441350  49.7486990 101.8049440  45.0376660  49.7729130
 102.2237550  45.8809390  49.6005370 100.8858070  45.1748700  49.5435910
 104.1413340  42.7692840  51.1566970 104.2609550  42.1733980  51.8961810
 105.0007340  42.8062530  50.7368270 106.4801240  43.3230030  49.7329480
 105.9536460  43.8472650  49.1294620 106.8232580  43.9557420  50.3639210
  98.8787630  40.7123400  36.1779190  98.6776690  39.8490760  36.5392530
  98.7079680  40.6256760  35.2400790  99.6556860  51.3429670  50.8886860
  99.1177950  52.0675730  50.5695560  99.9090820  50.8660010  50.0984200
 100.9082110  39.3114190  52.4142790 101.4981800  39.0030040  53.1020610
 100.0902350  38.8393940  52.5702690 105.7275540  38.9280000  52.6475810
 105.0391060  38.2661540  52.5825800 106.4481560  38.4818270  53.0924270
 106.3575940  35.5231630  38.7066070 106.6378230  34.6799530  39.0625490
 105.5841670  35.7554740  39.2204820  97.6770430  37.8124020  36.1657070
  97.9796330  37.8191450  35.2576220  98.4165020  37.4621880  36.6624730
 102.5119070  52.5780880  51.1473510 102.4377770  53.4816020  51.4545880
 101.6097910  52.2592780  51.1195580 100.8955360  36.7558640  37.1513270
 100.5477360  36.0782630  36.5715720 101.0968130  36.2948150  37.9656660
 103.0604400  51.7439390  38.7699870 103.9555190  52.0824360  38.7918630
 103.0922030  51.0218800  38.1424150  96.7000560  47.1166440  36.9986870
  97.1375430  47.6596110  37.6544450  97.1848290  46.2913390  37.0083210
  98.5108280  48.2364480  42.1109100  98.2103820  48.1129450  43.0113010
  98.4045770  47.3773070  41.7024830  94.4036570  50.7726060  47.1888760
  93.9667560  50.9526860  48.0212910  94.9714250  51.5300680  47.0470480
 108.7250390  46.9995040  49.5742230 107.9110230  47.4292200  49.8368020
 109.1324590  47.6113450  48.9611280 107.1851440  38.0787580  37.7696130
 107.6036320  37.8918560  36.9292790 106.8787500  37.2266630  38.0799060
  94.8252930  40.5807950  51.9939400  93.9308980  40.5474710  52.3333110
  95.3650480  40.7794740  52.7590650 108.5128860  37.3639670  53.8791150
 109.3899040  37.3723070  54.2625150 108.5249700  36.6270510  53.2683500
  93.4499080  40.4945220  39.4902970  92.5463160  40.7575420  39.3154630
  93.9339700  40.7656390  38.7102930  95.9926290  39.5510760  37.3997350
  96.7017990  39.1293980  36.9144630  95.2766230  39.6185990  36.7680700
  95.6400450  35.6050090  36.4400000  96.3628580  36.1459030  36.7581220
  95.9124970  35.3313510  35.5641540 108.7826440  51.7513640  43.1010500
 109.3785510  51.4298210  42.4244920 109.0404590  51.2785460  43.8923770
  96.6889010  48.1831550  53.2501130  96.6458640  47.8124460  54.1315590
  96.8200020  49.1209120  53.3902950 100.3895040  49.7391140  48.8510850
 100.1486400  50.0065700  47.9641370 101.3297680  49.9096870  48.9061710
 102.5949460  36.2023830  52.6067360 102.5338350  36.7945660  53.3562770
 103.5349840  36.0949790  52.4617620 105.2324020  35.8593890  52.2459650
 105.8464430  36.1773180  51.5840730 105.7773580  35.3742480  52.8655510
  95.7545280  34.5388150  52.3598710  96.3028270  34.3576200  51.5964820
  95.8200590  33.7482260  52.8955020  96.5277040  51.1293800  50.3698910
  95.9337360  50.9978500  51.1088950  96.5200880  50.2931940  49.9041010
 105.9732060  34.4226030  48.5728940 105.0991900  34.7561140  48.3701870
 105.8642810  33.9499210  49.3980810 106.8804040  36.6296900  49.9570660
 106.5517400  35.8148660  49.5772390 107.8286340  36.5866710  49.8336350
 109.3338650  52.4008940  46.9308230 108.8741620  53.1524750  46.5566250
 108.7051110  51.6815410  46.8723030  96.1589270  48.4952180  49.3206950
  95.4323330  47.8757470  49.2532900  96.2198420  48.8892790  48.4505030
  99.7634370  50.7097180  46.1056360 100.2799390  50.0984540  45.5804620
 100.4131750  51.2125960  46.5967370 102.5029870  51.6005670  46.9325340
 102.7907680  51.3459970  46.0558350 103.0153090  51.0483030  47.5230910
 103.7206880  35.3395870  47.5121850 102.9378670  35.8141370  47.7918610
 103.4269810  34.4350700  47.4035030 108.2727950  36.0418970  45.5570940
 108.7136040  35.9864070  44.7092540 108.0035540  36.9576980  45.6281120
  94.4419270  51.8126570  42.5303710  94.2741310  51.1797250  43.2285600
  93.5753780  52.0185970  42.1797900  95.0647290  35.6443350  40.0335570
  95.8226650  35.7572230  39.4599600  94.6024460  36.4812550  39.9879000
 101.6061100  37.7582620  43.0237880 100.7935610  37.3839510  42.6833760
 102.1102740  37.0027700  43.3259070 106.1086080  34.4225070  44.2620950
 106.7115450  34.9945280  44.7369470 105.3679070  34.9864510  44.0394850
 109.2520680  34.8246630  39.5361230 109.4471310  35.7230080  39.8028660
 108.4650550  34.5933710  40.0294180  96.0481970  50.5059800  39.9753850
  95.5229590  50.8867830  39.2715810  95.9726550  51.1310570  40.6963560
  97.4372440  36.1707400  38.5737540  97.9665200  35.3837200  38.4445490
  98.0700760  36.8498590  38.8073070  99.6310280  35.9082540  41.6282930
  99.0013020  35.2069850  41.7953060  99.0915420  36.6686670  41.4116090
 102.5702230  52.5221770  54.2993540 103.4969540  52.2866040  54.3429500
 102.5552660  53.3493770  53.8179570  99.7565840  35.1866520  54.0635420
  99.4750110  35.6900120  53.2996240 100.1385540  34.3888270  53.6977550
  98.6474940  52.4542180  38.8503100  99.3793760  52.1701460  38.3026990
  98.9068610  52.2155460  39.7402480  97.8089730  48.5706910  38.8549430
  97.1798610  49.0392010  39.4035260  97.9237560  47.7256130  39.2895620
 106.3581300  34.6020100  54.6415890 106.2446750  34.9214710  55.5367410
 107.1751040  35.0032610  54.3453170 105.2639450  42.6212570  25.0050630
 105.1833500  41.7067180  24.7342340 104.8503870  43.1179640  24.2990340
 103.3957490  44.3991590  26.8859900 102.6199590  43.9192030  27.1758470
 104.0470420  43.7197240  26.7116060  97.4123320  44.7111400  27.7635660
  96.5808200  44.4560110  28.1632170  98.0204300  44.7822170  28.4993580
 107.4164920  48.8051780  25.6659030 106.9546450  48.0339020  25.9946200
 108.2290470  48.8317850  26.1711480  97.3924580  48.7451490  27.9593680
  97.6952620  47.8549230  27.7803900  98.1368170  49.3021710  27.7315930
  95.8215270  39.6713290  21.5478050  94.9331970  40.0129260  21.4457930
  96.1056460  39.4713610  20.6558880  93.7848280  42.2718940  27.4317750
  94.3564390  41.5041140  27.4321390  93.7849820  42.5707700  26.5224360
 103.6428230  51.0909790  25.2863020 103.0239670  51.5467290  24.7157460
 104.4980010  51.2461250  24.8852720 102.8366480  47.0748780  26.8930060
 102.7674760  46.1338720  26.7319190 103.5986340  47.1650190  27.4652630
  95.0273150  37.6803300  29.2186680  94.8475990  36.7829050  29.4989440
  94.6253230  38.2275170  29.8933630 103.8671650  39.8819160  27.1198990
 104.2436470  39.0091040  27.0072660 103.7691160  40.2177860  26.2289430
  97.9976660  38.2544790  22.5816430  98.1043410  39.1548520  22.8885190
  97.0869020  38.2062760  22.2911080 107.6495770  37.3769600  24.0527330
 108.4705390  36.8866170  24.0952810 107.6829850  37.9667260  24.8059170
  95.6459820  40.1763800  27.8269020  96.3269930  40.4402170  28.4456420
  95.3307870  39.3364670  28.1607030  99.8384390  41.2231160  26.9141610
 100.3462610  41.7212130  27.5546630 100.3697630  40.4466360  26.7380970
  98.1220490  35.8629720  31.1805030  98.1238930  36.3802110  30.3750930
  97.2924800  35.3859900  31.1574960 104.5091580  45.9749030  22.6794930
 103.8908850  46.4398480  22.1157650 105.0214830  46.6676510  23.0964440
  99.3723340  45.5024900  29.3578530  99.0392720  46.1293820  29.9999600
  99.5490020  46.0286780  28.5780200 107.8857250  39.3169980  26.8254870
 107.1812820  39.6054870  27.4057980 108.2469410  40.1270090  26.4654430
  97.8035820  37.5739680  29.1875480  98.1452630  38.4181730  28.8929350
  96.8651630  37.7223420  29.3040820  98.5842440  47.4705700  31.1727710
  99.2016440  48.1456780  30.8912160  97.7235560  47.8793680  31.0815210
  93.8774780  46.6605560  20.0534560  93.5002760  47.1492660  19.3219460
  94.1347850  47.3330840  20.6841090 101.4863710  35.0621950  25.5120070
 101.7938690  34.5068840  24.7955570 100.5564410  35.1966410  25.3293060
 107.0378770  50.7789240  27.8027530 107.0505930  50.3751530  26.9349790
 106.4853990  51.5536530  27.6988960 108.3324190  47.5005460  22.8917700
 108.2220520  46.5579790  23.0167120 108.3292440  47.8621100  23.7780460
 106.4364210  45.6819080  29.1310140 106.8533000  45.4679190  28.2963600
 107.1604030  45.9391870  29.7018760 103.8744470  43.1270780  22.2480190
 102.9473750  43.0608160  22.4768660 104.0269290  44.0650910  22.1335430
 103.8613550  39.3987780  19.2447350 102.9217220  39.5601740  19.3299810
 104.1796810  40.1173460  18.6983340 107.9041760  44.6891080  22.7515440
 107.2854180  44.3510630  22.1041740 107.8866210  44.0450840  23.4594630
 107.3468320  40.8675620  30.1681250 106.9339500  41.6929330  30.4221240
 106.6144270  40.2820660  29.9757610  99.4801110  43.6535520  25.0299920
  99.0758110  42.9412770  24.5345820  99.5664230  43.3088760  25.9187960
  99.9482810  47.3403080  27.1939130  99.6511100  46.7348550  26.5146910
 100.8982630  47.3780390  27.0828490  98.1929730  40.4278730  28.8098960
  98.7444320  40.5374070  28.0352210  98.7073240  40.8016330  29.5254190
 108.0368420  50.9134950  30.8562230 107.5598980  51.7207140  30.6634840
 107.3530210  50.2613280  31.0088440  99.0401240  47.0784770  33.8446930
  98.1429770  47.3024740  34.0920330  99.0654110  47.2019710  32.8958330
 106.0806460  43.9277890  19.7588190 106.5199740  43.0900320  19.6126010
 106.7934880  44.5607290  19.8452330  97.8672460  43.9498090  32.4204300
  97.7280230  44.8220890  32.7891700  96.9853820  43.6070900  32.2752240
 104.1901840  48.8673960  23.7269430 104.6297750  49.6098290  23.3124820
 104.1288730  49.1100530  24.6508390  99.6652810  49.8919790  34.6289450
  99.6368240  50.2962740  33.7617880  99.5017780  48.9630150  34.4661050
  96.1805740  42.5480500  22.5306570  96.0603340  43.2742590  21.9187840
  95.8706630  41.7783410  22.0534480  93.8191110  45.7195640  28.3375210
  93.8971530  45.8544410  27.3930930  94.4332790  45.0111530  28.5303330
  95.0638740  47.4195830  24.7481390  94.6566820  47.5610420  23.8934990
  95.9551750  47.1355990  24.5452600 104.8817620  51.5687740  31.6548440
 105.3962290  51.4795750  32.4570870 104.0386700  51.9147440  31.9476350
 106.8572020  51.8543080  21.0832440 106.6973160  51.5646020  21.9814270
 106.6918730  51.0783210  20.5477670  99.3360400  51.6341610  22.8604060
  99.1602880  50.7177150  22.6471860  98.4816140  51.9928900  23.1001860
 106.5598150  49.3630640  19.6430440 105.8663310  49.3607930  18.9832720
 107.3021010  48.9389960  19.2124610 106.1248080  50.9893350  23.7178930
 106.5805030  50.2082730  24.0317550 106.4640600  51.7000170  24.2620110
  93.8750630  46.7609810  30.8769670  94.0381670  46.2915170  30.0589040
  94.3403080  46.2533370  31.5418510  98.6469400  35.8915570  25.9130240
  98.2037550  36.6725110  25.5814760  99.2054390  36.2145460  26.6201180
 102.9339210  38.7584090  31.5165560 102.4718580  38.9667110  32.3285500
 102.5317320  37.9443440  31.2136230 107.9343720  39.9793040  32.6462220
 107.0837310  39.6798790  32.9671290 107.7745510  40.2235050  31.7346040
 105.0293430  41.4794790  34.7461010 105.3546840  40.6458540  34.4063240
 105.8173760  42.0023310  34.8939340 101.7628220  35.5126270  20.7936070
 101.1382400  35.5086140  21.5189380 101.6758340  34.6457230  20.3972040
 100.6845300  36.4362900  27.7719840 100.9817630  37.3425730  27.6911860
 101.2330860  35.9481680  27.1579410  98.4383620  41.0149140  23.6411490
  98.2124540  40.7986310  24.5458110  97.6576150  41.4477600  23.2957460
 105.6681380  41.0212510  22.2402140 105.0690270  41.7448310  22.0565760
 106.2160990  40.9589290  21.4578590 100.8782830  41.9134720  34.3071760
 100.7826430  40.9729450  34.1572160 101.7214810  42.1349790  33.9119830
 104.2746250  39.6576050  24.2705420 104.6675820  39.9748250  23.4574110
 104.6363100  38.7787930  24.3849940  96.0093370  38.3248390  32.4605540
  95.6156760  39.1723600  32.6678320  95.3211770  37.6874760  32.6514180
 102.5838420  38.4083360  35.5302280 101.8936740  38.2155560  36.1648370
 103.3270720  38.6918000  36.0626580  93.3110420  36.2476850  26.4935620
  93.0223470  36.8179710  27.2060600  94.0556180  35.7681300  26.8566850
  93.4980650  40.1896970  17.7038340  93.4155320  41.1327730  17.8453330
  93.1463710  40.0471880  16.8250690 104.8601390  42.2481800  28.3656200
 104.1282510  42.7568610  28.7146300 104.4625730  41.4311780  28.0644980
 101.2978780  38.9236000  26.7708690 101.3014840  38.4825950  25.9213230
 102.1929900  39.2453330  26.8780510  97.1481160  38.8062490  25.7302900
  96.8081210  39.2837720  26.4869950  96.3858480  38.3527610  25.3704000
 101.3598930  39.9248080  19.7615450 101.4811750  39.8834560  20.7101270
 100.9747440  40.7872230  19.6062180 105.3227300  37.7015480  27.7779140
 105.3400040  38.1524130  28.6220990 105.0742880  36.8021120  27.9912580
 100.3720430  42.2349220  19.1598750  99.8037330  41.7867470  18.5334660
 101.0809430  42.5942000  18.6263900 108.7498050  35.1147660  33.6165520
 109.0743820  34.3837320  34.1423500 108.7854560  34.7961300  32.7146510
  95.4489610  46.1361240  33.0365480  95.0644400  45.4954910  33.6348440
  95.7601800  46.8397360  33.6060210 101.5986750  42.9837780  28.5174100
 101.9656880  42.5096350  29.2635440 101.4091810  43.8579350  28.8582440
  94.4627240  37.7281470  24.6467570  94.1774160  37.3637140  25.4846190
  94.4006100  36.9961930  24.0330710  99.3886120  42.0246420  30.8358310
  99.0843190  42.9038400  31.0608670 100.3432580  42.0846210  30.8715750
  97.9167910  46.2307410  21.4325160  97.1430170  45.6905030  21.2723880
  98.6462540  45.7114020  21.0942920 108.6755890  45.2272770  27.2251550
 109.3955010  45.7228060  26.8347660 108.4737710  44.5490660  26.5805420
 104.1365830  36.6210730  21.3680940 103.3230440  36.1223900  21.2926250
 103.9427780  37.4608980  20.9517290 104.0574690  45.2981830  33.1120550
 103.9912000  44.3777500  32.8578140 103.4279830  45.3957270  33.8265190
 106.8514220  40.9930380  19.6643100 107.7393840  41.3047610  19.4894440
 106.8219310  40.1202630  19.2723680  97.9605310  45.8987790  25.0703970
  98.4783980  45.0956050  25.0160860  97.5089330  45.8366930  25.9120800
 102.8474810  47.1654070  20.3431270 103.1890510  47.9096300  19.8474590
 102.0187520  47.4785190  20.7056100  95.4449850  42.8649160  31.9829670
  95.0864790  43.5303010  32.5703010  95.1504410  42.0332710  32.3542290
  98.6462970  43.3233400  34.8669220  98.3463110  43.4690580  33.9697040
  99.4174210  42.7638690  34.7742610 103.9891420  48.1202400  32.8624350
 104.0035960  47.1883360  32.6443260 103.2816520  48.2062160  33.5014120
 105.7302220  46.4869910  25.7076780 106.0826040  45.8898040  25.0478150
 104.8464550  46.1614140  25.8785030 101.8165500  47.2467600  23.1147190
 102.5036630  47.7936810  23.4954780 101.0297920  47.7908330  23.1496800
  93.9557900  42.8640420  18.6064270  94.8252750  43.1465220  18.8900190
  93.4648220  43.6776290  18.4913080 101.1192710  44.2513630  22.7272550
 101.5755490  45.0618880  22.9532740 100.7680920  43.9336770  23.5591040
 103.4225320  49.7619970  29.9564850 104.0667540  49.9679350  30.6338270
 103.7854760  49.0008370  29.5035700  97.0204490  34.5951280  23.1995070
  96.8919120  34.5869180  24.1479990  96.1966510  34.9334370  22.8486080
 104.6957400  47.7652320  28.6742300 105.3379630  47.0645480  28.7874470
 105.2206750  48.5450760  28.4939190 108.5413120  48.0500940  18.3981440
 108.3150700  47.3331380  18.9906080 108.1509320  47.8013380  17.5603190
 106.4695020  48.5647220  31.8778360 106.8051260  49.1513910  32.5556280
 105.5495360  48.4339930  32.1076150  94.3229150  52.0767800  19.1725900
  94.6826790  52.6757140  18.5183170  94.1821490  52.6227690  19.9460930
  94.0198420  36.3542400  32.6601770  93.3056940  36.5539320  33.2654380
  94.4393460  35.5781970  33.0316570 108.1229370  45.9672880  20.0595600
 107.8351070  46.4285570  20.8473480 108.9181540  45.5070650  20.3279820
  94.3071010  50.3422660  33.6468300  94.4162130  49.4017400  33.5063690
  93.6551570  50.6077410  32.9982030 102.2983600  48.6138550  35.0466420
 101.9780470  47.8947790  35.5912110 101.6241960  49.2893620  35.1202480
 100.3397770  49.4599000  19.9899570 100.3307870  50.1928690  19.3744080
  99.4196130  49.2130580  20.0826530  95.9404410  44.6813890  20.7346330
  95.3332360  45.4212790  20.7441630  96.4153760  44.7713250  19.9084530
 105.5137200  38.8464710  30.4103220 105.8818020  38.0259920  30.7382790
 104.6535400  38.9066600  30.8258870 108.8799230  37.8021650  21.2190780
 108.2512390  37.9067320  20.5049010 108.3851150  38.0218430  22.0084660
 103.3257370  49.5227240  18.6524760 103.4269350  49.3191230  17.7226740
 102.4259110  49.2685520  18.8572540 100.8483260  40.0807600  22.6348660
 100.1399410  40.5493940  23.0762270 101.1327740  39.4229610  23.2693850
 102.4739190  41.5004300  30.6341190 102.9724440  41.9750120  31.2993040
 102.6162140  40.5767820  30.8411220 104.8798690  36.8058260  24.0744450
 104.7566470  36.8244390  23.1253960 105.8283250  36.8537200  24.1942850
 101.9675480  52.0413560  23.3472430 102.2216980  52.0034950  22.4251800
 101.0187960  51.9146890  23.3400680  99.0518280  38.3892680  20.0099370
  99.9008810  38.8262830  19.9439560  98.6849550  38.7012940  20.8371430
 107.9728060  42.9605440  24.9230940 107.0318200  42.9755670  25.0978630
 108.2872130  42.1741400  25.3691240  97.9509700  44.6425040  18.4834900
  98.7172970  44.5306400  19.0460330  98.0284390  43.9463010  17.8311670
  96.6456460  42.0750110  19.1667790  96.7260050  41.1277620  19.2785190
  97.5376210  42.4056990  19.2728450  97.4471170  52.2245500  26.2702330
  98.1833650  51.6760960  26.5410900  97.8312090  53.0901510  26.1308320
  94.3316650  48.2919070  22.1443840  93.4056430  48.5340210  22.1349250
  94.7973080  49.1193330  22.0228590  96.4529450  51.4091570  35.4587910
  97.2542180  51.7303620  35.8723310  95.9381270  51.0487150  36.1807820
 100.5573480  51.3975810  18.0927900 101.3502090  51.6864640  17.6409690
 100.0377830  50.9667980  17.4140380 105.2894080  47.5171440  35.4063320
 104.6832240  47.5403040  34.6659070 104.9848190  46.7854480  35.9430570
 106.7194450  51.2451730  34.0172730 107.6716200  51.1609750  33.9672970
 106.5722670  51.9093440  34.6906520  94.1727260  43.8965030  34.4023960
  94.6766280  43.3172310  34.9740190  93.4334680  44.1805260  34.9400330
 101.0750880  46.6179220  17.9570250 100.9701520  46.0031570  18.6831630
 100.9075100  46.0945110  17.1733260 101.2265200  45.3036020  33.9359480
 100.4610870  45.8721020  33.8514150 101.4081160  45.0112230  33.0427710
 104.3153610  45.6799250  18.5612240 103.7663710  46.1268550  19.2054980
 104.9372870  45.1748500  19.0849910 108.3688550  47.0341350  34.4934500
 109.1098020  47.3717110  33.9901960 107.6061230  47.2033410  33.9404270
  96.2050340  42.0394620  35.2974030  96.2455680  41.7408490  36.2059260
  97.0595840  42.4402230  35.1381550  99.9828730  44.6390170  20.4577540
 100.4045150  44.4730040  21.3008930 100.1079570  43.8290400  19.9632680
  98.1456150  40.6186720  33.2648520  97.6152610  40.1277670  32.6371860
  98.8144220  41.0470920  32.7306450 102.4956370  43.6627780  17.7054640
 103.0162030  42.9476800  17.3395790 103.1424770  44.3013650  18.0055150
 107.0434210  45.0856180  33.0289710 107.4575230  45.2401260  33.8780130
 106.1085210  45.2111400  33.1915490 107.5156380  42.4252340  35.0328860
 108.0977150  41.6704660  34.9449340 107.6918150  42.9559780  34.2560340
  98.6328450  37.5849090  33.3445810  98.5385320  36.9669840  32.6196680
  98.0525840  38.3115380  33.1175720 101.3989890  36.1422330  30.3773200
 100.9507190  36.1646590  29.5318750 100.7655090  35.7441350  30.9743500
 101.8049440  45.0376660  30.9985640 102.2237550  45.8809390  30.8261880
 100.8858070  45.1748700  30.7692420 104.1413340  42.7692840  32.3823480
 104.2609550  42.1733980  33.1218320 105.0007340  42.8062530  31.9624780
 106.4801240  43.3230030  30.9585990 105.9536460  43.8472650  30.3551130
 106.8232580  43.9557420  31.5895720  98.8787630  40.7123400  17.4035700
  98.6776690  39.8490760  17.7649040  98.7079680  40.6256760  16.4657300
  99.6556860  51.3429670  32.1143370  99.1177950  52.0675730  31.7952070
  99.9090820  50.8660010  31.3240710 100.9082110  39.3114190  33.6399300
 101.4981800  39.0030040  34.3277120 100.0902350  38.8393940  33.7959200
 105.7275540  38.9280000  33.8732320 105.0391060  38.2661540  33.8082310
 106.4481560  38.4818270  34.3180780 106.3575940  35.5231630  19.9322580
 106.6378230  34.6799530  20.2882000 105.5841670  35.7554740  20.4461330
  97.6770430  37.8124020  17.3913580  97.9796330  37.8191450  16.4832730
  98.4165020  37.4621880  17.8881240 102.5119070  52.5780880  32.3730020
 102.4377770  53.4816020  32.6802390 101.6097910  52.2592780  32.3452090
 100.8955360  36.7558640  18.3769780 100.5477360  36.0782630  17.7972230
 101.0968130  36.2948150  19.1913170 103.0604400  51.7439390  19.9956380
 103.9555190  52.0824360  20.0175140 103.0922030  51.0218800  19.3680660
  96.7000560  47.1166440  18.2243380  97.1375430  47.6596110  18.8800960
  97.1848290  46.2913390  18.2339720  93.9146360  49.9055470  25.6763640
  94.2449370  49.0376530  25.4442280  94.3437360  50.1113990  26.5068600
  98.5108280  48.2364480  23.3365610  98.2103820  48.1129450  24.2369520
  98.4045770  47.3773070  22.9281340  94.4036570  50.7726060  28.4145270
  93.9667560  50.9526860  29.2469420  94.9714250  51.5300680  28.2726990
  94.2361000  43.2846290  24.7734150  93.5809840  43.0157930  24.1293850
  95.0738950  43.1750770  24.3236130 108.7250390  46.9995040  30.7998740
 107.9110230  47.4292200  31.0624530 109.1324590  47.6113450  30.1867790
 107.1851440  38.0787580  18.9952640 107.6036320  37.8918560  18.1549300
 106.8787500  37.2266630  19.3055570  95.2736930  43.6698860  29.3137490
  95.6409970  43.5826260  30.1933510  94.7047750  42.9065410  29.2144350
  94.8252930  40.5807950  33.2195910  93.9308980  40.5474710  33.5589620
  95.3650480  40.7794740  33.9847160 108.5128860  37.3639670  35.1047660
 109.3899040  37.3723070  35.4881660 108.5249700  36.6270510  34.4940010
  93.4499080  40.4945220  20.7159480  92.5463160  40.7575420  20.5411140
  93.9339700  40.7656390  19.9359440  95.9926290  39.5510760  18.6253860
  96.7017990  39.1293980  18.1401140  95.2766230  39.6185990  17.9937210
  95.6400450  35.6050090  17.6656510  96.3628580  36.1459030  17.9837730
  95.9124970  35.3313510  16.7898050  95.3292640  34.8556280  27.5679130
  95.9768830  34.3053660  27.1274290  95.7494480  35.1099430  28.3894940
 108.7826440  51.7513640  24.3267010 109.3785510  51.4298210  23.6501430
 109.0404590  51.2785460  25.1180280  95.0824640  35.0111950  30.3104450
  94.7339460  35.4675770  31.0762630  94.7512340  34.1169080  30.3926880
  96.6889010  48.1831550  34.4757640  96.6458640  47.8124460  35.3572100
  96.8200020  49.1209120  34.6159460 100.3895040  49.7391140  30.0767360
 100.1486400  50.0065700  29.1897880 101.3297680  49.9096870  30.1318220
 102.5949460  36.2023830  33.8323870 102.5338350  36.7945660  34.5819280
 103.5349840  36.0949790  33.6874130 105.2324020  35.8593890  33.4716160
 105.8464430  36.1773180  32.8097240 105.7773580  35.3742480  34.0912020
  95.7545280  34.5388150  33.5855220  96.3028270  34.3576200  32.8221330
  95.8200590  33.7482260  34.1211530  96.5277040  51.1293800  31.5955420
  95.9337360  50.9978500  32.3345460  96.5200880  50.2931940  31.1297520
 105.9732060  34.4226030  29.7985450 105.0991900  34.7561140  29.5958380
 105.8642810  33.9499210  30.6237320 106.8804040  36.6296900  31.1827170
 106.5517400  35.8148660  30.8028900 107.8286340  36.5866710  31.0592860
 109.3338650  52.4008940  28.1564740 108.8741620  53.1524750  27.7822760
 108.7051110  51.6815410  28.0979540  96.1589270  48.4952180  30.5463460
  95.4323330  47.8757470  30.4789410  96.2198420  48.8892790  29.6761540
  99.7634370  50.7097180  27.3312870 100.2799390  50.0984540  26.8061130
 100.4131750  51.2125960  27.8223880 102.5029870  51.6005670  28.1581850
 102.7907680  51.3459970  27.2814860 103.0153090  51.0483030  28.7487420
 103.7206880  35.3395870  28.7378360 102.9378670  35.8141370  29.0175120
 103.4269810  34.4350700  28.6291540 108.2727950  36.0418970  26.7827450
 108.7136040  35.9864070  25.9349050 108.0035540  36.9576980  26.8537630
  94.4419270  51.8126570  23.7560220  94.2741310  51.1797250  24.4542110
  93.5753780  52.0185970  23.4054410  95.0647290  35.6443350  21.2592080
  95.8226650  35.7572230  20.6856110  94.6024460  36.4812550  21.2135510
 101.6061100  37.7582620  24.2494390 100.7935610  37.3839510  23.9090270
 102.1102740  37.0027700  24.5515580 106.1086080  34.4225070  25.4877460
 106.7115450  34.9945280  25.9625980 105.3679070  34.9864510  25.2651360
 109.2520680  34.8246630  20.7617740 109.4471310  35.7230080  21.0285170
 108.4650550  34.5933710  21.2550690  96.0481970  50.5059800  21.2010360
  95.5229590  50.8867830  20.4972320  95.9726550  51.1310570  21.9220070
  97.4372440  36.1707400  19.7994050  97.9665200  35.3837200  19.6702000
  98.0700760  36.8498590  20.0329580  99.6310280  35.9082540  22.8539440
  99.0013020  35.2069850  23.0209570  99.0915420  36.6686670  22.6372600
 102.5702230  52.5221770  35.5250050 103.4969540  52.2866040  35.5686010
 102.5552660  53.3493770  35.0436080  99.7565840  35.1866520  35.2891930
  99.4750110  35.6900120  34.5252750 100.1385540  34.3888270  34.9234060
  98.6474940  52.4542180  20.0759610  99.3793760  52.1701460  19.5283500
  98.9068610  52.2155460  20.9658990  97.8089730  48.5706910  20.0805940
  97.1798610  49.0392010  20.6291770  97.9237560  47.7256130  20.5152130
 106.3581300  34.6020100  35.8672400 106.2446750  34.9214710  36.7623920
 107.1751040  35.0032610  35.5709680 105.2639450  42.6212570   6.2307140
 105.1833500  41.7067180   5.9598850 104.8503870  43.1179640   5.5246850
 103.3957490  44.3991590   8.1116410 102.6199590  43.9192030   8.4014980
 104.0470420  43.7197240   7.9372570  97.4123320  44.7111400   8.9892170
  96.5808200  44.4560110   9.3888680  98.0204300  44.7822170   9.7250090
 107.4164920  48.8051780   6.8915540 106.9546450  48.0339020   7.2202710
 108.2290470  48.8317850   7.3967990  97.3924580  48.7451490   9.1850190
  97.6952620  47.8549230   9.0060410  98.1368170  49.3021710   8.9572440
  95.8215270  39.6713290   2.7734560  94.9331970  40.0129260   2.6714440
  96.1056460  39.4713610   1.8815390  93.7848280  42.2718940   8.6574260
  94.3564390  41.5041140   8.6577900  93.7849820  42.5707700   7.7480870
 103.6428230  51.0909790   6.5119530 103.0239670  51.5467290   5.9413970
 104.4980010  51.2461250   6.1109230 102.8366480  47.0748780   8.1186570
 102.7674760  46.1338720   7.9575700 103.5986340  47.1650190   8.6909140
  95.0273150  37.6803300  10.4443190  94.8475990  36.7829050  10.7245950
  94.6253230  38.2275170  11.1190140 103.8671650  39.8819160   8.3455500
 104.2436470  39.0091040   8.2329170 103.7691160  40.2177860   7.4545940
  97.9976660  38.2544790   3.8072940  98.1043410  39.1548520   4.1141700
  97.0869020  38.2062760   3.5167590 107.6495770  37.3769600   5.2783840
 108.4705390  36.8866170   5.3209320 107.6829850  37.9667260   6.0315680
  95.6459820  40.1763800   9.0525530  96.3269930  40.4402170   9.6712930
  95.3307870  39.3364670   9.3863540  99.8384390  41.2231160   8.1398120
 100.3462610  41.7212130   8.7803140 100.3697630  40.4466360   7.9637480
  98.1220490  35.8629720  12.4061540  98.1238930  36.3802110  11.6007440
  97.2924800  35.3859900  12.3831470 104.5091580  45.9749030   3.9051440
 103.8908850  46.4398480   3.3414160 105.0214830  46.6676510   4.3220950
  99.3723340  45.5024900  10.5835040  99.0392720  46.1293820  11.2256110
  99.5490020  46.0286780   9.8036710 107.8857250  39.3169980   8.0511380
 107.1812820  39.6054870   8.6314490 108.2469410  40.1270090   7.6910940
  97.8035820  37.5739680  10.4131990  98.1452630  38.4181730  10.1185860
  96.8651630  37.7223420  10.5297330  98.5842440  47.4705700  12.3984220
  99.2016440  48.1456780  12.1168670  97.7235560  47.8793680  12.3071720
 101.4863710  35.0621950   6.7376580 101.7938690  34.5068840   6.0212080
 100.5564410  35.1966410   6.5549570 107.0378770  50.7789240   9.0284040
 107.0505930  50.3751530   8.1606300 106.4853990  51.5536530   8.9245470
 108.3324190  47.5005460   4.1174210 108.2220520  46.5579790   4.2423630
 108.3292440  47.8621100   5.0036970 106.4364210  45.6819080  10.3566650
 106.8533000  45.4679190   9.5220110 107.1604030  45.9391870  10.9275270
 103.8744470  43.1270780   3.4736700 102.9473750  43.0608160   3.7025170
 104.0269290  44.0650910   3.3591940 107.9041760  44.6891080   3.9771950
 107.2854180  44.3510630   3.3298250 107.8866210  44.0450840   4.6851140
 107.3468320  40.8675620  11.3937760 106.9339500  41.6929330  11.6477750
 106.6144270  40.2820660  11.2014120  99.4801110  43.6535520   6.2556430
  99.0758110  42.9412770   5.7602330  99.5664230  43.3088760   7.1444470
  99.9482810  47.3403080   8.4195640  99.6511100  46.7348550   7.7403420
 100.8982630  47.3780390   8.3085000  98.1929730  40.4278730  10.0355470
  98.7444320  40.5374070   9.2608720  98.7073240  40.8016330  10.7510700
 108.0368420  50.9134950  12.0818740 107.5598980  51.7207140  11.8891350
 107.3530210  50.2613280  12.2344950  99.0401240  47.0784770  15.0703440
  98.1429770  47.3024740  15.3176840  99.0654110  47.2019710  14.1214840
  97.8672460  43.9498090  13.6460810  97.7280230  44.8220890  14.0148210
  96.9853820  43.6070900  13.5008750 104.1901840  48.8673960   4.9525940
 104.6297750  49.6098290   4.5381330 104.1288730  49.1100530   5.8764900
  99.6652810  49.8919790  15.8545960  99.6368240  50.2962740  14.9874390
  99.5017780  48.9630150  15.6917560  96.1805740  42.5480500   3.7563080
  96.0603340  43.2742590   3.1444350  95.8706630  41.7783410   3.2790990
  93.8191110  45.7195640   9.5631720  93.8971530  45.8544410   8.6187440
  94.4332790  45.0111530   9.7559840  95.0638740  47.4195830   5.9737900
  94.6566820  47.5610420   5.1191500  95.9551750  47.1355990   5.7709110
 104.8817620  51.5687740  12.8804950 105.3962290  51.4795750  13.6827380
 104.0386700  51.9147440  13.1732860 106.8572020  51.8543080   2.3088950
 106.6973160  51.5646020   3.2070780 106.6918730  51.0783210   1.7734180
  99.3360400  51.6341610   4.0860570  99.1602880  50.7177150   3.8728370
  98.4816140  51.9928900   4.3258370 106.1248080  50.9893350   4.9435440
 106.5805030  50.2082730   5.2574060 106.4640600  51.7000170   5.4876620
  93.8750630  46.7609810  12.1026180  94.0381670  46.2915170  11.2845550
  94.3403080  46.2533370  12.7675020  98.6469400  35.8915570   7.1386750
  98.2037550  36.6725110   6.8071270  99.2054390  36.2145460   7.8457690
 102.9339210  38.7584090  12.7422070 102.4718580  38.9667110  13.5542010
 102.5317320  37.9443440  12.4392740 107.9343720  39.9793040  13.8718730
 107.0837310  39.6798790  14.1927800 107.7745510  40.2235050  12.9602550
 105.0293430  41.4794790  15.9717520 105.3546840  40.6458540  15.6319750
 105.8173760  42.0023310  16.1195850 100.6845300  36.4362900   8.9976350
 100.9817630  37.3425730   8.9168370 101.2330860  35.9481680   8.3835920
  98.4383620  41.0149140   4.8668000  98.2124540  40.7986310   5.7714620
  97.6576150  41.4477600   4.5213970 105.6681380  41.0212510   3.4658650
 105.0690270  41.7448310   3.2822270 106.2160990  40.9589290   2.6835100
 100.8782830  41.9134720  15.5328270 100.7826430  40.9729450  15.3828670
 101.7214810  42.1349790  15.1376340 104.2746250  39.6576050   5.4961930
 104.6675820  39.9748250   4.6830620 104.6363100  38.7787930   5.6106450
  96.0093370  38.3248390  13.6862050  95.6156760  39.1723600  13.8934830
  95.3211770  37.6874760  13.8770690 102.5838420  38.4083360  16.7558790
 101.8936740  38.2155560  17.3904880 103.3270720  38.6918000  17.2883090
  93.3110420  36.2476850   7.7192130  93.0223470  36.8179710   8.4317110
  94.0556180  35.7681300   8.0823360 104.8601390  42.2481800   9.5912710
 104.1282510  42.7568610   9.9402810 104.4625730  41.4311780   9.2901490
 101.2978780  38.9236000   7.9965200 101.3014840  38.4825950   7.1469740
 102.1929900  39.2453330   8.1037020  97.1481160  38.8062490   6.9559410
  96.8081210  39.2837720   7.7126460  96.3858480  38.3527610   6.5960510
 105.3227300  37.7015480   9.0035650 105.3400040  38.1524130   9.8477500
 105.0742880  36.8021120   9.2169090 108.7498050  35.1147660  14.8422030
 109.0743820  34.3837320  15.3680010 108.7854560  34.7961300  13.9403020
  95.4489610  46.1361240  14.2621990  95.0644400  45.4954910  14.8604950
  95.7601800  46.8397360  14.8316720 101.5986750  42.9837780   9.7430610
 101.9656880  42.5096350  10.4891950 101.4091810  43.8579350  10.0838950
  94.4627240  37.7281470   5.8724080  94.1774160  37.3637140   6.7102700
  94.4006100  36.9961930   5.2587220  99.3886120  42.0246420  12.0614820
  99.0843190  42.9038400  12.2865180 100.3432580  42.0846210  12.0972260
  97.9167910  46.2307410   2.6581670  97.1430170  45.6905030   2.4980390
  98.6462540  45.7114020   2.3199430 108.6755890  45.2272770   8.4508060
 109.3955010  45.7228060   8.0604170 108.4737710  44.5490660   7.8061930
 104.1365830  36.6210730   2.5937450 103.3230440  36.1223900   2.5182760
 103.9427780  37.4608980   2.1773800 104.0574690  45.2981830  14.3377060
 103.9912000  44.3777500  14.0834650 103.4279830  45.3957270  15.0521700
  97.9605310  45.8987790   6.2960480  98.4783980  45.0956050   6.2417370
  97.5089330  45.8366930   7.1377310  95.4449850  42.8649160  13.2086180
  95.0864790  43.5303010  13.7959520  95.1504410  42.0332710  13.5798800
  98.6462970  43.3233400  16.0925730  98.3463110  43.4690580  15.1953550
  99.4174210  42.7638690  15.9999120 103.9891420  48.1202400  14.0880860
 104.0035960  47.1883360  13.8699770 103.2816520  48.2062160  14.7270630
 105.7302220  46.4869910   6.9333290 106.0826040  45.8898040   6.2734660
 104.8464550  46.1614140   7.1041540 101.8165500  47.2467600   4.3403700
 102.5036630  47.7936810   4.7211290 101.0297920  47.7908330   4.3753310
 101.1192710  44.2513630   3.9529060 101.5755490  45.0618880   4.1789250
 100.7680920  43.9336770   4.7847550 103.4225320  49.7619970  11.1821360
 104.0667540  49.9679350  11.8594780 103.7854760  49.0008370  10.7292210
  97.0204490  34.5951280   4.4251580  96.8919120  34.5869180   5.3736500
  96.1966510  34.9334370   4.0742590 104.6957400  47.7652320   9.8998810
 105.3379630  47.0645480  10.0130980 105.2206750  48.5450760   9.7195700
 106.4695020  48.5647220  13.1034870 106.8051260  49.1513910  13.7812790
 105.5495360  48.4339930  13.3332660  94.0198420  36.3542400  13.8858280
  93.3056940  36.5539320  14.4910890  94.4393460  35.5781970  14.2573080
  94.3071010  50.3422660  14.8724810  94.4162130  49.4017400  14.7320200
  93.6551570  50.6077410  14.2238540 102.2983600  48.6138550  16.2722930
 101.9780470  47.8947790  16.8168620 101.6241960  49.2893620  16.3458990
 105.5137200  38.8464710  11.6359730 105.8818020  38.0259920  11.9639300
 104.6535400  38.9066600  12.0515380 108.8799230  37.8021650   2.4447290
 108.2512390  37.9067320   1.7305520 108.3851150  38.0218430   3.2341170
 100.8483260  40.0807600   3.8605170 100.1399410  40.5493940   4.3018780
 101.1327740  39.4229610   4.4950360 102.4739190  41.5004300  11.8597700
 102.9724440  41.9750120  12.5249550 102.6162140  40.5767820  12.0667730
 104.8798690  36.8058260   5.3000960 104.7566470  36.8244390   4.3510470
 105.8283250  36.8537200   5.4199360 101.9675480  52.0413560   4.5728940
 102.2216980  52.0034950   3.6508310 101.0187960  51.9146890   4.5657190
 107.9728060  42.9605440   6.1487450 107.0318200  42.9755670   6.3235140
 108.2872130  42.1741400   6.5947750  97.4471170  52.2245500   7.4958840
  98.1833650  51.6760960   7.7667410  97.8312090  53.0901510   7.3564830
  94.3316650  48.2919070   3.3700350  93.4056430  48.5340210   3.3605760
  94.7973080  49.1193330   3.2485100  96.4529450  51.4091570  16.6844420
  97.2542180  51.7303620  17.0979820  95.9381270  51.0487150  17.4064330
 105.2894080  47.5171440  16.6319830 104.6832240  47.5403040  15.8915580
 104.9848190  46.7854480  17.1687080 106.7194450  51.2451730  15.2429240
 107.6716200  51.1609750  15.1929480 106.5722670  51.9093440  15.9163030
  94.1727260  43.8965030  15.6280470  94.6766280  43.3172310  16.1996700
  93.4334680  44.1805260  16.1656840 101.2265200  45.3036020  15.1615990
 100.4610870  45.8721020  15.0770660 101.4081160  45.0112230  14.2684220
 108.3688550  47.0341350  15.7191010 109.1098020  47.3717110  15.2158470
 107.6061230  47.2033410  15.1660780  96.2050340  42.0394620  16.5230540
  96.2455680  41.7408490  17.4315770  97.0595840  42.4402230  16.3638060
  98.1456150  40.6186720  14.4905030  97.6152610  40.1277670  13.8628370
  98.8144220  41.0470920  13.9562960 107.0434210  45.0856180  14.2546220
 107.4575230  45.2401260  15.1036640 106.1085210  45.2111400  14.4172000
 107.5156380  42.4252340  16.2585370 108.0977150  41.6704660  16.1705850
 107.6918150  42.9559780  15.4816850  98.6328450  37.5849090  14.5702320
  98.5385320  36.9669840  13.8453190  98.0525840  38.3115380  14.3432230
 101.3989890  36.1422330  11.6029710 100.9507190  36.1646590  10.7575260
 100.7655090  35.7441350  12.2000010 101.8049440  45.0376660  12.2242150
 102.2237550  45.8809390  12.0518390 100.8858070  45.1748700  11.9948930
 104.1413340  42.7692840  13.6079990 104.2609550  42.1733980  14.3474830
 105.0007340  42.8062530  13.1881290 106.4801240  43.3230030  12.1842500
 105.9536460  43.8472650  11.5807640 106.8232580  43.9557420  12.8152230
  99.6556860  51.3429670  13.3399880  99.1177950  52.0675730  13.0208580
  99.9090820  50.8660010  12.5497220 100.9082110  39.3114190  14.8655810
 101.4981800  39.0030040  15.5533630 100.0902350  38.8393940  15.0215710
 105.7275540  38.9280000  15.0988830 105.0391060  38.2661540  15.0338820
 106.4481560  38.4818270  15.5437290 102.5119070  52.5780880  13.5986530
 102.4377770  53.4816020  13.9058900 101.6097910  52.2592780  13.5708600
  93.9146360  49.9055470   6.9020150  94.2449370  49.0376530   6.6698790
  94.3437360  50.1113990   7.7325110  98.5108280  48.2364480   4.5622120
  98.2103820  48.1129450   5.4626030  98.4045770  47.3773070   4.1537850
  94.4036570  50.7726060   9.6401780  93.9667560  50.9526860  10.4725930
  94.9714250  51.5300680   9.4983500  94.2361000  43.2846290   5.9990660
  93.5809840  43.0157930   5.3550360  95.0738950  43.1750770   5.5492640
 108.7250390  46.9995040  12.0255250 107.9110230  47.4292200  12.2881040
 109.1324590  47.6113450  11.4124300  95.2736930  43.6698860  10.5394000
  95.6409970  43.5826260  11.4190020  94.7047750  42.9065410  10.4400860
  94.8252930  40.5807950  14.4452420  93.9308980  40.5474710  14.7846130
  95.3650480  40.7794740  15.2103670 108.5128860  37.3639670  16.3304170
 109.3899040  37.3723070  16.7138170 108.5249700  36.6270510  15.7196520
  95.3292640  34.8556280   8.7935640  95.9768830  34.3053660   8.3530800
  95.7494480  35.1099430   9.6151450 108.7826440  51.7513640   5.5523520
 109.3785510  51.4298210   4.8757940 109.0404590  51.2785460   6.3436790
  95.0824640  35.0111950  11.5360960  94.7339460  35.4675770  12.3019140
  94.7512340  34.1169080  11.6183390  96.6889010  48.1831550  15.7014150
  96.6458640  47.8124460  16.5828610  96.8200020  49.1209120  15.8415970
 100.3895040  49.7391140  11.3023870 100.1486400  50.0065700  10.4154390
 101.3297680  49.9096870  11.3574730 102.5949460  36.2023830  15.0580380
 102.5338350  36.7945660  15.8075790 103.5349840  36.0949790  14.9130640
 105.2324020  35.8593890  14.6972670 105.8464430  36.1773180  14.0353750
 105.7773580  35.3742480  15.3168530  95.7545280  34.5388150  14.8111730
  96.3028270  34.3576200  14.0477840  95.8200590  33.7482260  15.3468040
  96.5277040  51.1293800  12.8211930  95.9337360  50.9978500  13.5601970
  96.5200880  50.2931940  12.3554030 105.9732060  34.4226030  11.0241960
 105.0991900  34.7561140  10.8214890 105.8642810  33.9499210  11.8493830
 106.8804040  36.6296900  12.4083680 106.5517400  35.8148660  12.0285410
 107.8286340  36.5866710  12.2849370 109.3338650  52.4008940   9.3821250
 108.8741620  53.1524750   9.0079270 108.7051110  51.6815410   9.3236050
  96.1589270  48.4952180  11.7719970  95.4323330  47.8757470  11.7045920
  96.2198420  48.8892790  10.9018050  99.7634370  50.7097180   8.5569380
 100.2799390  50.0984540   8.0317640 100.4131750  51.2125960   9.0480390
 102.5029870  51.6005670   9.3838360 102.7907680  51.3459970   8.5071370
 103.0153090  51.0483030   9.9743930 103.7206880  35.3395870   9.9634870
 102.9378670  35.8141370  10.2431630 103.4269810  34.4350700   9.8548050
 108.2727950  36.0418970   8.0083960 108.7136040  35.9864070   7.1605560
 108.0035540  36.9576980   8.0794140  94.4419270  51.8126570   4.9816730
  94.2741310  51.1797250   5.6798620  93.5753780  52.0185970   4.6310920
  95.0647290  35.6443350   2.4848590  95.8226650  35.7572230   1.9112620
  94.6024460  36.4812550   2.4392020 101.6061100  37.7582620   5.4750900
 100.7935610  37.3839510   5.1346780 102.1102740  37.0027700   5.7772090
 106.1086080  34.4225070   6.7133970 106.7115450  34.9945280   7.1882490
 105.3679070  34.9864510   6.4907870 109.2520680  34.8246630   1.9874250
 109.4471310  35.7230080   2.2541680 108.4650550  34.5933710   2.4807200
  96.0481970  50.5059800   2.4266870  95.5229590  50.8867830   1.7228830
  95.9726550  51.1310570   3.1476580  99.6310280  35.9082540   4.0795950
  99.0013020  35.2069850   4.2466080  99.0915420  36.6686670   3.8629110
 102.5702230  52.5221770  16.7506560 103.4969540  52.2866040  16.7942520
 102.5552660  53.3493770  16.2692590  99.7565840  35.1866520  16.5148440
  99.4750110  35.6900120  15.7509260 100.1385540  34.3888270  16.1490570
 106.3581300  34.6020100  17.0928910 106.2446750  34.9214710  17.9880430
 107.1751040  35.0032610  16.7966190 105.2639450  23.8469080  81.3281100
 105.1833500  22.9323690  81.0572810 104.8503870  24.3436150  80.6220810
 103.3957490  25.6248100  83.2090370 102.6199590  25.1448540  83.4988940
 104.0470420  24.9453750  83.0346530  97.4123320  25.9367910  84.0866130
  96.5808200  25.6816620  84.4862640  98.0204300  26.0078680  84.8224050
 107.4164920  30.0308290  81.9889500 106.9546450  29.2595530  82.3176670
 108.2290470  30.0574360  82.4941950  97.3924580  29.9708000  84.2824150
  97.6952620  29.0805740  84.1034370  98.1368170  30.5278220  84.0546400
  95.8215270  20.8969800  77.8708520  94.9331970  21.2385770  77.7688400
  96.1056460  20.6970120  76.9789350  93.7848280  23.4975450  83.7548220
  94.3564390  22.7297650  83.7551860  93.7849820  23.7964210  82.8454830
 103.6428230  32.3166300  81.6093490 103.0239670  32.7723800  81.0387930
 104.4980010  32.4717760  81.2083190 102.8366480  28.3005290  83.2160530
 102.7674760  27.3595230  83.0549660 103.5986340  28.3906700  83.7883100
  95.0273150  18.9059810  85.5417150  94.8475990  18.0085560  85.8219910
  94.6253230  19.4531680  86.2164100 103.8671650  21.1075670  83.4429460
 104.2436470  20.2347550  83.3303130 103.7691160  21.4434370  82.5519900
  97.9976660  19.4801300  78.9046900  98.1043410  20.3805030  79.2115660
  97.0869020  19.4319270  78.6141550 107.6495770  18.6026110  80.3757800
 108.4705390  18.1122680  80.4183280 107.6829850  19.1923770  81.1289640
  95.6459820  21.4020310  84.1499490  96.3269930  21.6658680  84.7686890
  95.3307870  20.5621180  84.4837500  99.8384390  22.4487670  83.2372080
 100.3462610  22.9468640  83.8777100 100.3697630  21.6722870  83.0611440
  98.1220490  17.0886230  87.5035500  98.1238930  17.6058620  86.6981400
  97.2924800  16.6116410  87.4805430 104.5091580  27.2005540  79.0025400
 103.8908850  27.6654990  78.4388120 105.0214830  27.8933020  79.4194910
  99.3723340  26.7281410  85.6809000  99.0392720  27.3550330  86.3230070
  99.5490020  27.2543290  84.9010670 107.8857250  20.5426490  83.1485340
 107.1812820  20.8311380  83.7288450 108.2469410  21.3526600  82.7884900
  97.8035820  18.7996190  85.5105950  98.1452630  19.6438240  85.2159820
  96.8651630  18.9479930  85.6271290  98.5842440  28.6962210  87.4958180
  99.2016440  29.3713290  87.2142630  97.7235560  29.1050190  87.4045680
  93.8774780  27.8862070  76.3765030  93.5002760  28.3749170  75.6449930
  94.1347850  28.5587350  77.0071560 101.4863710  16.2878460  81.8350540
 101.7938690  15.7325350  81.1186040 100.5564410  16.4222920  81.6523530
 107.0378770  32.0045750  84.1258000 107.0505930  31.6008040  83.2580260
 106.4853990  32.7793040  84.0219430 108.3324190  28.7261970  79.2148170
 108.2220520  27.7836300  79.3397590 108.3292440  29.0877610  80.1010930
 106.4364210  26.9075590  85.4540610 106.8533000  26.6935700  84.6194070
 107.1604030  27.1648380  86.0249230 103.8744470  24.3527290  78.5710660
 102.9473750  24.2864670  78.7999130 104.0269290  25.2907420  78.4565900
 103.8613550  20.6244290  75.5677820 102.9217220  20.7858250  75.6530280
 104.1796810  21.3429970  75.0213810 107.9041760  25.9147590  79.0745910
 107.2854180  25.5767140  78.4272210 107.8866210  25.2707350  79.7825100
 107.3468320  22.0932130  86.4911720 106.9339500  22.9185840  86.7451710
 106.6144270  21.5077170  86.2988080  99.4801110  24.8792030  81.3530390
  99.0758110  24.1669280  80.8576290  99.5664230  24.5345270  82.2418430
  99.9482810  28.5659590  83.5169600  99.6511100  27.9605060  82.8377380
 100.8982630  28.6036900  83.4058960  98.1929730  21.6535240  85.1329430
  98.7444320  21.7630580  84.3582680  98.7073240  22.0272840  85.8484660
 108.0368420  32.1391460  87.1792700 107.5598980  32.9463650  86.9865310
 107.3530210  31.4869790  87.3318910 106.0806460  25.1534400  76.0818660
 106.5199740  24.3156830  75.9356480 106.7934880  25.7863800  76.1682800
  97.8672460  25.1754600  88.7434770  97.7280230  26.0477400  89.1122170
  96.9853820  24.8327410  88.5982710 104.1901840  30.0930470  80.0499900
 104.6297750  30.8354800  79.6355290 104.1288730  30.3357040  80.9738860
  96.1805740  23.7737010  78.8537040  96.0603340  24.4999100  78.2418310
  95.8706630  23.0039920  78.3764950  93.8191110  26.9452150  84.6605680
  93.8971530  27.0800920  83.7161400  94.4332790  26.2368040  84.8533800
  95.0638740  28.6452340  81.0711860  94.6566820  28.7866930  80.2165460
  95.9551750  28.3612500  80.8683070 104.8817620  32.7944250  87.9778910
 105.3962290  32.7052260  88.7801340 104.0386700  33.1403950  88.2706820
 106.8572020  33.0799590  77.4062910 106.6973160  32.7902530  78.3044740
 106.6918730  32.3039720  76.8708140  99.3360400  32.8598120  79.1834530
  99.1602880  31.9433660  78.9702330  98.4816140  33.2185410  79.4232330
 106.5598150  30.5887150  75.9660910 105.8663310  30.5864440  75.3063190
 107.3021010  30.1646470  75.5355080 106.1248080  32.2149860  80.0409400
 106.5805030  31.4339240  80.3548020 106.4640600  32.9256680  80.5850580
  93.8750630  27.9866320  87.2000140  94.0381670  27.5171680  86.3819510
  94.3403080  27.4789880  87.8648980  98.6469400  17.1172080  82.2360710
  98.2037550  17.8981620  81.9045230  99.2054390  17.4401970  82.9431650
 102.9339210  19.9840600  87.8396030 102.4718580  20.1923620  88.6515970
 102.5317320  19.1699950  87.5366700 101.7628220  16.7382780  77.1166540
 101.1382400  16.7342650  77.8419850 101.6758340  15.8713740  76.7202510
 100.6845300  17.6619410  84.0950310 100.9817630  18.5682240  84.0142330
 101.2330860  17.1738190  83.4809880  98.4383620  22.2405650  79.9641960
  98.2124540  22.0242820  80.8688580  97.6576150  22.6734110  79.6187930
 105.6681380  22.2469020  78.5632610 105.0690270  22.9704820  78.3796230
 106.2160990  22.1845800  77.7809060 104.2746250  20.8832560  80.5935890
 104.6675820  21.2004760  79.7804580 104.6363100  20.0044440  80.7080410
  96.0093370  19.5504900  88.7836010  95.6156760  20.3980110  88.9908790
  95.3211770  18.9131270  88.9744650  93.3110420  17.4733360  82.8166090
  93.0223470  18.0436220  83.5291070  94.0556180  16.9937810  83.1797320
  93.4980650  21.4153480  74.0268810  93.4155320  22.3584240  74.1683800
  93.1463710  21.2728390  73.1481160 104.8601390  23.4738310  84.6886670
 104.1282510  23.9825120  85.0376770 104.4625730  22.6568290  84.3875450
 101.2978780  20.1492510  83.0939160 101.3014840  19.7082460  82.2443700
 102.1929900  20.4709840  83.2010980  97.1481160  20.0319000  82.0533370
  96.8081210  20.5094230  82.8100420  96.3858480  19.5784120  81.6934470
 101.3598930  21.1504590  76.0845920 101.4811750  21.1091070  77.0331740
 100.9747440  22.0128740  75.9292650 105.3227300  18.9271990  84.1009610
 105.3400040  19.3780640  84.9451460 105.0742880  18.0277630  84.3143050
 100.3720430  23.4605730  75.4829220  99.8037330  23.0123980  74.8565130
 101.0809430  23.8198510  74.9494370 101.5986750  24.2094290  84.8404570
 101.9656880  23.7352860  85.5865910 101.4091810  25.0835860  85.1812910
  94.4627240  18.9537980  80.9698040  94.1774160  18.5893650  81.8076660
  94.4006100  18.2218440  80.3561180  99.3886120  23.2502930  87.1588780
  99.0843190  24.1294910  87.3839140 100.3432580  23.3102720  87.1946220
  97.9167910  27.4563920  77.7555630  97.1430170  26.9161540  77.5954350
  98.6462540  26.9370530  77.4173390 108.6755890  26.4529280  83.5482020
 109.3955010  26.9484570  83.1578130 108.4737710  25.7747170  82.9035890
 104.1365830  17.8467240  77.6911410 103.3230440  17.3480410  77.6156720
 103.9427780  18.6865490  77.2747760 106.8514220  22.2186890  75.9873570
 107.7393840  22.5304120  75.8124910 106.8219310  21.3459140  75.5954150
  97.9605310  27.1244300  81.3934440  98.4783980  26.3212560  81.3391330
  97.5089330  27.0623440  82.2351270 102.8474810  28.3910580  76.6661740
 103.1890510  29.1352810  76.1705060 102.0187520  28.7041700  77.0286570
  95.4449850  24.0905670  88.3060140  95.0864790  24.7559520  88.8933480
  95.1504410  23.2589220  88.6772760 105.7302220  27.7126420  82.0307250
 106.0826040  27.1154550  81.3708620 104.8464550  27.3870650  82.2015500
 101.8165500  28.4724110  79.4377660 102.5036630  29.0193320  79.8185250
 101.0297920  29.0164840  79.4727270  93.9557900  24.0896930  74.9294740
  94.8252750  24.3721730  75.2130660  93.4648220  24.9032800  74.8143550
 101.1192710  25.4770140  79.0503020 101.5755490  26.2875390  79.2763210
 100.7680920  25.1593280  79.8821510 103.4225320  30.9876480  86.2795320
 104.0667540  31.1935860  86.9568740 103.7854760  30.2264880  85.8266170
  97.0204490  15.8207790  79.5225540  96.8919120  15.8125690  80.4710460
  96.1966510  16.1590880  79.1716550 104.6957400  28.9908830  84.9972770
 105.3379630  28.2901990  85.1104940 105.2206750  29.7707270  84.8169660
 108.5413120  29.2757450  74.7211910 108.3150700  28.5587890  75.3136550
 108.1509320  29.0269890  73.8833660 106.4695020  29.7903730  88.2008830
 106.8051260  30.3770420  88.8786750 105.5495360  29.6596440  88.4306620
  94.3229150  33.3024310  75.4956370  94.6826790  33.9013650  74.8413640
  94.1821490  33.8484200  76.2691400 108.1229370  27.1929390  76.3826070
 107.8351070  27.6542080  77.1703950 108.9181540  26.7327160  76.6510290
 100.3397770  30.6855510  76.3130040 100.3307870  31.4185200  75.6974550
  99.4196130  30.4387090  76.4057000  95.9404410  25.9070400  77.0576800
  95.3332360  26.6469300  77.0672100  96.4153760  25.9969760  76.2315000
 105.5137200  20.0721220  86.7333690 105.8818020  19.2516430  87.0613260
 104.6535400  20.1323110  87.1489340 108.8799230  19.0278160  77.5421250
 108.2512390  19.1323830  76.8279480 108.3851150  19.2474940  78.3315130
 103.3257370  30.7483750  74.9755230 103.4269350  30.5447740  74.0457210
 102.4259110  30.4942030  75.1803010 100.8483260  21.3064110  78.9579130
 100.1399410  21.7750450  79.3992740 101.1327740  20.6486120  79.5924320
 102.4739190  22.7260810  86.9571660 102.9724440  23.2006630  87.6223510
 102.6162140  21.8024330  87.1641690 104.8798690  18.0314770  80.3974920
 104.7566470  18.0500900  79.4484430 105.8283250  18.0793710  80.5173320
 101.9675480  33.2670070  79.6702900 102.2216980  33.2291460  78.7482270
 101.0187960  33.1403400  79.6631150  99.0518280  19.6149190  76.3329840
  99.9008810  20.0519340  76.2670030  98.6849550  19.9269450  77.1601900
 107.9728060  24.1861950  81.2461410 107.0318200  24.2012180  81.4209100
 108.2872130  23.3997910  81.6921710  97.9509700  25.8681550  74.8065370
  98.7172970  25.7562910  75.3690800  98.0284390  25.1719520  74.1542140
  96.6456460  23.3006620  75.4898260  96.7260050  22.3534130  75.6015660
  97.5376210  23.6313500  75.5958920  97.4471170  33.4502010  82.5932800
  98.1833650  32.9017470  82.8641370  97.8312090  34.3158020  82.4538790
  94.3316650  29.5175580  78.4674310  93.4056430  29.7596720  78.4579720
  94.7973080  30.3449840  78.3459060 100.5573480  32.6232320  74.4158370
 101.3502090  32.9121150  73.9640160 100.0377830  32.1924490  73.7370850
 101.0750880  27.8435730  74.2800720 100.9701520  27.2288080  75.0062100
 100.9075100  27.3201620  73.4963730 104.3153610  26.9055760  74.8842710
 103.7663710  27.3525060  75.5285450 104.9372870  26.4005010  75.4080380
  99.9828730  25.8646680  76.7808010 100.4045150  25.6986550  77.6239400
 100.1079570  25.0546910  76.2863150 102.4956370  24.8884290  74.0285110
 103.0162030  24.1733310  73.6626260 103.1424770  25.5270160  74.3285620
 101.3989890  17.3678840  86.7003670 100.9507190  17.3903100  85.8549220
 100.7655090  16.9697860  87.2973970 101.8049440  26.2633170  87.3216110
 102.2237550  27.1065900  87.1492350 100.8858070  26.4005210  87.0922890
 106.4801240  24.5486540  87.2816460 105.9536460  25.0729160  86.6781600
 106.8232580  25.1813930  87.9126190  98.8787630  21.9379910  73.7266170
  98.6776690  21.0747270  74.0879510  98.7079680  21.8513270  72.7887770
  99.6556860  32.5686180  88.4373840  99.1177950  33.2932240  88.1182540
  99.9090820  32.0916520  87.6471180 106.3575940  16.7488140  76.2553050
 106.6378230  15.9056040  76.6112470 105.5841670  16.9811250  76.7691800
  97.6770430  19.0380530  73.7144050  97.9796330  19.0447960  72.8063200
  98.4165020  18.6878390  74.2111710 102.5119070  33.8037390  88.6960490
 102.4377770  34.7072530  89.0032860 101.6097910  33.4849290  88.6682560
 100.8955360  17.9815150  74.7000250 100.5477360  17.3039140  74.1202700
 101.0968130  17.5204660  75.5143640 103.0604400  32.9695900  76.3186850
 103.9555190  33.3080870  76.3405610 103.0922030  32.2475310  75.6911130
  96.7000560  28.3422950  74.5473850  97.1375430  28.8852620  75.2031430
  97.1848290  27.5169900  74.5570190  93.9146360  31.1311980  81.9994110
  94.2449370  30.2633040  81.7672750  94.3437360  31.3370500  82.8299070
  98.5108280  29.4620990  79.6596080  98.2103820  29.3385960  80.5599990
  98.4045770  28.6029580  79.2511810  94.4036570  31.9982570  84.7375740
  93.9667560  32.1783370  85.5699890  94.9714250  32.7557190  84.5957460
  94.2361000  24.5102800  81.0964620  93.5809840  24.2414440  80.4524320
  95.0738950  24.4007280  80.6466600 108.7250390  28.2251550  87.1229210
 107.9110230  28.6548710  87.3855000 109.1324590  28.8369960  86.5098260
 107.1851440  19.3044090  75.3183110 107.6036320  19.1175070  74.4779770
 106.8787500  18.4523140  75.6286040  95.2736930  24.8955370  85.6367960
  95.6409970  24.8082770  86.5163980  94.7047750  24.1321920  85.5374820
  93.4499080  21.7201730  77.0389950  92.5463160  21.9831930  76.8641610
  93.9339700  21.9912900  76.2589910  95.9926290  20.7767270  74.9484330
  96.7017990  20.3550490  74.4631610  95.2766230  20.8442500  74.3167680
  95.6400450  16.8306600  73.9886980  96.3628580  17.3715540  74.3068200
  95.9124970  16.5570020  73.1128520  95.3292640  16.0812790  83.8909600
  95.9768830  15.5310170  83.4504760  95.7494480  16.3355940  84.7125410
 108.7826440  32.9770150  80.6497480 109.3785510  32.6554720  79.9731900
 109.0404590  32.5041970  81.4410750  95.0824640  16.2368460  86.6334920
  94.7339460  16.6932280  87.3993100  94.7512340  15.3425590  86.7157350
 100.3895040  30.9647650  86.3997830 100.1486400  31.2322210  85.5128350
 101.3297680  31.1353380  86.4548690  96.5277040  32.3550310  87.9185890
  95.9337360  32.2235010  88.6575930  96.5200880  31.5188450  87.4527990
 105.9732060  15.6482540  86.1215920 105.0991900  15.9817650  85.9188850
 105.8642810  15.1755720  86.9467790 106.8804040  17.8553410  87.5057640
 106.5517400  17.0405170  87.1259370 107.8286340  17.8123220  87.3823330
 109.3338650  33.6265450  84.4795210 108.8741620  34.3781260  84.1053230
 108.7051110  32.9071920  84.4210010  96.1589270  29.7208690  86.8693930
  95.4323330  29.1013980  86.8019880  96.2198420  30.1149300  85.9992010
  99.7634370  31.9353690  83.6543340 100.2799390  31.3241050  83.1291600
 100.4131750  32.4382470  84.1454350 102.5029870  32.8262180  84.4812320
 102.7907680  32.5716480  83.6045330 103.0153090  32.2739540  85.0717890
 103.7206880  16.5652380  85.0608830 102.9378670  17.0397880  85.3405590
 103.4269810  15.6607210  84.9522010 108.2727950  17.2675480  83.1057920
 108.7136040  17.2120580  82.2579520 108.0035540  18.1833490  83.1768100
  94.4419270  33.0383080  80.0790690  94.2741310  32.4053760  80.7772580
  93.5753780  33.2442480  79.7284880  95.0647290  16.8699860  77.5822550
  95.8226650  16.9828740  77.0086580  94.6024460  17.7069060  77.5365980
 101.6061100  18.9839130  80.5724860 100.7935610  18.6096020  80.2320740
 102.1102740  18.2284210  80.8746050 106.1086080  15.6481580  81.8107930
 106.7115450  16.2201790  82.2856450 105.3679070  16.2121020  81.5881830
 109.2520680  16.0503140  77.0848210 109.4471310  16.9486590  77.3515640
 108.4650550  15.8190220  77.5781160  96.0481970  31.7316310  77.5240830
  95.5229590  32.1124340  76.8202790  95.9726550  32.3567080  78.2450540
  97.4372440  17.3963910  76.1224520  97.9665200  16.6093710  75.9932470
  98.0700760  18.0755100  76.3560050  99.6310280  17.1339050  79.1769910
  99.0013020  16.4326360  79.3440040  99.0915420  17.8943180  78.9603070
  98.6474940  33.6798690  76.3990080  99.3793760  33.3957970  75.8513970
  98.9068610  33.4411970  77.2889460  97.8089730  29.7963420  76.4036410
  97.1798610  30.2648520  76.9522240  97.9237560  28.9512640  76.8382600
 105.2639450  23.8469080  62.5537610 105.1833500  22.9323690  62.2829320
 104.8503870  24.3436150  61.8477320 103.3957490  25.6248100  64.4346880
 102.6199590  25.1448540  64.7245450 104.0470420  24.9453750  64.2603040
  97.4123320  25.9367910  65.3122640  96.5808200  25.6816620  65.7119150
  98.0204300  26.0078680  66.0480560 107.4164920  30.0308290  63.2146010
 106.9546450  29.2595530  63.5433180 108.2290470  30.0574360  63.7198460
  97.3924580  29.9708000  65.5080660  97.6952620  29.0805740  65.3290880
  98.1368170  30.5278220  65.2802910  95.8215270  20.8969800  59.0965030
  94.9331970  21.2385770  58.9944910  96.1056460  20.6970120  58.2045860
  93.7848280  23.4975450  64.9804730  94.3564390  22.7297650  64.9808370
  93.7849820  23.7964210  64.0711340 103.6428230  32.3166300  62.8350000
 103.0239670  32.7723800  62.2644440 104.4980010  32.4717760  62.4339700
 102.8366480  28.3005290  64.4417040 102.7674760  27.3595230  64.2806170
 103.5986340  28.3906700  65.0139610  95.0273150  18.9059810  66.7673660
  94.8475990  18.0085560  67.0476420  94.6253230  19.4531680  67.4420610
 103.8671650  21.1075670  64.6685970 104.2436470  20.2347550  64.5559640
 103.7691160  21.4434370  63.7776410  97.9976660  19.4801300  60.1303410
  98.1043410  20.3805030  60.4372170  97.0869020  19.4319270  59.8398060
 107.6495770  18.6026110  61.6014310 108.4705390  18.1122680  61.6439790
 107.6829850  19.1923770  62.3546150  95.6459820  21.4020310  65.3756000
  96.3269930  21.6658680  65.9943400  95.3307870  20.5621180  65.7094010
  99.8384390  22.4487670  64.4628590 100.3462610  22.9468640  65.1033610
 100.3697630  21.6722870  64.2867950  98.1220490  17.0886230  68.7292010
  98.1238930  17.6058620  67.9237910  97.2924800  16.6116410  68.7061940
 104.5091580  27.2005540  60.2281910 103.8908850  27.6654990  59.6644630
 105.0214830  27.8933020  60.6451420  99.3723340  26.7281410  66.9065510
  99.0392720  27.3550330  67.5486580  99.5490020  27.2543290  66.1267180
 107.8857250  20.5426490  64.3741850 107.1812820  20.8311380  64.9544960
 108.2469410  21.3526600  64.0141410  97.8035820  18.7996190  66.7362460
  98.1452630  19.6438240  66.4416330  96.8651630  18.9479930  66.8527800
  98.5842440  28.6962210  68.7214690  99.2016440  29.3713290  68.4399140
  97.7235560  29.1050190  68.6302190  93.8774780  27.8862070  57.6021540
  93.5002760  28.3749170  56.8706440  94.1347850  28.5587350  58.2328070
 101.4863710  16.2878460  63.0607050 101.7938690  15.7325350  62.3442550
 100.5564410  16.4222920  62.8780040 107.0378770  32.0045750  65.3514510
 107.0505930  31.6008040  64.4836770 106.4853990  32.7793040  65.2475940
 108.3324190  28.7261970  60.4404680 108.2220520  27.7836300  60.5654100
 108.3292440  29.0877610  61.3267440 106.4364210  26.9075590  66.6797120
 106.8533000  26.6935700  65.8450580 107.1604030  27.1648380  67.2505740
 103.8744470  24.3527290  59.7967170 102.9473750  24.2864670  60.0255640
 104.0269290  25.2907420  59.6822410 103.8613550  20.6244290  56.7934330
 102.9217220  20.7858250  56.8786790 104.1796810  21.3429970  56.2470320
 107.9041760  25.9147590  60.3002420 107.2854180  25.5767140  59.6528720
 107.8866210  25.2707350  61.0081610 107.3468320  22.0932130  67.7168230
 106.9339500  22.9185840  67.9708220 106.6144270  21.5077170  67.5244590
  99.4801110  24.8792030  62.5786900  99.0758110  24.1669280  62.0832800
  99.5664230  24.5345270  63.4674940  99.9482810  28.5659590  64.7426110
  99.6511100  27.9605060  64.0633890 100.8982630  28.6036900  64.6315470
  98.1929730  21.6535240  66.3585940  98.7444320  21.7630580  65.5839190
  98.7073240  22.0272840  67.0741170 108.0368420  32.1391460  68.4049210
 107.5598980  32.9463650  68.2121820 107.3530210  31.4869790  68.5575420
  99.0401240  28.3041280  71.3933910  98.1429770  28.5281250  71.6407310
  99.0654110  28.4276220  70.4445310 106.0806460  25.1534400  57.3075170
 106.5199740  24.3156830  57.1612990 106.7934880  25.7863800  57.3939310
  97.8672460  25.1754600  69.9691280  97.7280230  26.0477400  70.3378680
  96.9853820  24.8327410  69.8239220 104.1901840  30.0930470  61.2756410
 104.6297750  30.8354800  60.8611800 104.1288730  30.3357040  62.1995370
  99.6652810  31.1176300  72.1776430  99.6368240  31.5219250  71.3104860
  99.5017780  30.1886660  72.0148030  96.1805740  23.7737010  60.0793550
  96.0603340  24.4999100  59.4674820  95.8706630  23.0039920  59.6021460
  93.8191110  26.9452150  65.8862190  93.8971530  27.0800920  64.9417910
  94.4332790  26.2368040  66.0790310  95.0638740  28.6452340  62.2968370
  94.6566820  28.7866930  61.4421970  95.9551750  28.3612500  62.0939580
 104.8817620  32.7944250  69.2035420 105.3962290  32.7052260  70.0057850
 104.0386700  33.1403950  69.4963330 106.8572020  33.0799590  58.6319420
 106.6973160  32.7902530  59.5301250 106.6918730  32.3039720  58.0964650
  99.3360400  32.8598120  60.4091040  99.1602880  31.9433660  60.1958840
  98.4816140  33.2185410  60.6488840 106.5598150  30.5887150  57.1917420
 105.8663310  30.5864440  56.5319700 107.3021010  30.1646470  56.7611590
 106.1248080  32.2149860  61.2665910 106.5805030  31.4339240  61.5804530
 106.4640600  32.9256680  61.8107090  93.8750630  27.9866320  68.4256650
  94.0381670  27.5171680  67.6076020  94.3403080  27.4789880  69.0905490
  98.6469400  17.1172080  63.4617220  98.2037550  17.8981620  63.1301740
  99.2054390  17.4401970  64.1688160 102.9339210  19.9840600  69.0652540
 102.4718580  20.1923620  69.8772480 102.5317320  19.1699950  68.7623210
 107.9343720  21.2049550  70.1949200 107.0837310  20.9055300  70.5158270
 107.7745510  21.4491560  69.2833020 105.0293430  22.7051300  72.2947990
 105.3546840  21.8715050  71.9550220 105.8173760  23.2279820  72.4426320
 101.7628220  16.7382780  58.3423050 101.1382400  16.7342650  59.0676360
 101.6758340  15.8713740  57.9459020 100.6845300  17.6619410  65.3206820
 100.9817630  18.5682240  65.2398840 101.2330860  17.1738190  64.7066390
  98.4383620  22.2405650  61.1898470  98.2124540  22.0242820  62.0945090
  97.6576150  22.6734110  60.8444440 105.6681380  22.2469020  59.7889120
 105.0690270  22.9704820  59.6052740 106.2160990  22.1845800  59.0065570
 100.8782830  23.1391230  71.8558740 100.7826430  22.1985960  71.7059140
 101.7214810  23.3606300  71.4606810 104.2746250  20.8832560  61.8192400
 104.6675820  21.2004760  61.0061090 104.6363100  20.0044440  61.9336920
  96.0093370  19.5504900  70.0092520  95.6156760  20.3980110  70.2165300
  95.3211770  18.9131270  70.2001160 102.5838420  19.6339870  73.0789260
 101.8936740  19.4412070  73.7135350 103.3270720  19.9174510  73.6113560
  93.3110420  17.4733360  64.0422600  93.0223470  18.0436220  64.7547580
  94.0556180  16.9937810  64.4053830  93.4980650  21.4153480  55.2525320
  93.4155320  22.3584240  55.3940310  93.1463710  21.2728390  54.3737670
 104.8601390  23.4738310  65.9143180 104.1282510  23.9825120  66.2633280
 104.4625730  22.6568290  65.6131960 101.2978780  20.1492510  64.3195670
 101.3014840  19.7082460  63.4700210 102.1929900  20.4709840  64.4267490
  97.1481160  20.0319000  63.2789880  96.8081210  20.5094230  64.0356930
  96.3858480  19.5784120  62.9190980 101.3598930  21.1504590  57.3102430
 101.4811750  21.1091070  58.2588250 100.9747440  22.0128740  57.1549160
 105.3227300  18.9271990  65.3266120 105.3400040  19.3780640  66.1707970
 105.0742880  18.0277630  65.5399560 100.3720430  23.4605730  56.7085730
  99.8037330  23.0123980  56.0821640 101.0809430  23.8198510  56.1750880
 108.7498050  16.3404170  71.1652500 109.0743820  15.6093830  71.6910480
 108.7854560  16.0217810  70.2633490  95.4489610  27.3617750  70.5852460
  95.0644400  26.7211420  71.1835420  95.7601800  28.0653870  71.1547190
 101.5986750  24.2094290  66.0661080 101.9656880  23.7352860  66.8122420
 101.4091810  25.0835860  66.4069420  94.4627240  18.9537980  62.1954550
  94.1774160  18.5893650  63.0333170  94.4006100  18.2218440  61.5817690
  99.3886120  23.2502930  68.3845290  99.0843190  24.1294910  68.6095650
 100.3432580  23.3102720  68.4202730  97.9167910  27.4563920  58.9812140
  97.1430170  26.9161540  58.8210860  98.6462540  26.9370530  58.6429900
 108.6755890  26.4529280  64.7738530 109.3955010  26.9484570  64.3834640
 108.4737710  25.7747170  64.1292400 104.1365830  17.8467240  58.9167920
 103.3230440  17.3480410  58.8413230 103.9427780  18.6865490  58.5004270
 104.0574690  26.5238340  70.6607530 103.9912000  25.6034010  70.4065120
 103.4279830  26.6213780  71.3752170 106.8514220  22.2186890  57.2130080
 107.7393840  22.5304120  57.0381420 106.8219310  21.3459140  56.8210660
  97.9605310  27.1244300  62.6190950  98.4783980  26.3212560  62.5647840
  97.5089330  27.0623440  63.4607780 102.8474810  28.3910580  57.8918250
 103.1890510  29.1352810  57.3961570 102.0187520  28.7041700  58.2543080
  95.4449850  24.0905670  69.5316650  95.0864790  24.7559520  70.1189990
  95.1504410  23.2589220  69.9029270  98.6462970  24.5489910  72.4156200
  98.3463110  24.6947090  71.5184020  99.4174210  23.9895200  72.3229590
 103.9891420  29.3458910  70.4111330 104.0035960  28.4139870  70.1930240
 103.2816520  29.4318670  71.0501100 105.7302220  27.7126420  63.2563760
 106.0826040  27.1154550  62.5965130 104.8464550  27.3870650  63.4272010
 101.8165500  28.4724110  60.6634170 102.5036630  29.0193320  61.0441760
 101.0297920  29.0164840  60.6983780  93.9557900  24.0896930  56.1551250
  94.8252750  24.3721730  56.4387170  93.4648220  24.9032800  56.0400060
 101.1192710  25.4770140  60.2759530 101.5755490  26.2875390  60.5019720
 100.7680920  25.1593280  61.1078020 103.4225320  30.9876480  67.5051830
 104.0667540  31.1935860  68.1825250 103.7854760  30.2264880  67.0522680
  97.0204490  15.8207790  60.7482050  96.8919120  15.8125690  61.6966970
  96.1966510  16.1590880  60.3973060 104.6957400  28.9908830  66.2229280
 105.3379630  28.2901990  66.3361450 105.2206750  29.7707270  66.0426170
 108.5413120  29.2757450  55.9468420 108.3150700  28.5587890  56.5393060
 108.1509320  29.0269890  55.1090170 106.4695020  29.7903730  69.4265340
 106.8051260  30.3770420  70.1043260 105.5495360  29.6596440  69.6563130
  94.3229150  33.3024310  56.7212880  94.6826790  33.9013650  56.0670150
  94.1821490  33.8484200  57.4947910  94.0198420  17.5798910  70.2088750
  93.3056940  17.7795830  70.8141360  94.4393460  16.8038480  70.5803550
 108.1229370  27.1929390  57.6082580 107.8351070  27.6542080  58.3960460
 108.9181540  26.7327160  57.8766800  94.3071010  31.5679170  71.1955280
  94.4162130  30.6273910  71.0550670  93.6551570  31.8333920  70.5469010
 102.2983600  29.8395060  72.5953400 101.9780470  29.1204300  73.1399090
 101.6241960  30.5150130  72.6689460 100.3397770  30.6855510  57.5386550
 100.3307870  31.4185200  56.9231060  99.4196130  30.4387090  57.6313510
  95.9404410  25.9070400  58.2833310  95.3332360  26.6469300  58.2928610
  96.4153760  25.9969760  57.4571510 105.5137200  20.0721220  67.9590200
 105.8818020  19.2516430  68.2869770 104.6535400  20.1323110  68.3745850
 108.8799230  19.0278160  58.7677760 108.2512390  19.1323830  58.0535990
 108.3851150  19.2474940  59.5571640 103.3257370  30.7483750  56.2011740
 103.4269350  30.5447740  55.2713720 102.4259110  30.4942030  56.4059520
 100.8483260  21.3064110  60.1835640 100.1399410  21.7750450  60.6249250
 101.1327740  20.6486120  60.8180830 102.4739190  22.7260810  68.1828170
 102.9724440  23.2006630  68.8480020 102.6162140  21.8024330  68.3898200
 104.8798690  18.0314770  61.6231430 104.7566470  18.0500900  60.6740940
 105.8283250  18.0793710  61.7429830 101.9675480  33.2670070  60.8959410
 102.2216980  33.2291460  59.9738780 101.0187960  33.1403400  60.8887660
  99.0518280  19.6149190  57.5586350  99.9008810  20.0519340  57.4926540
  98.6849550  19.9269450  58.3858410 107.9728060  24.1861950  62.4717920
 107.0318200  24.2012180  62.6465610 108.2872130  23.3997910  62.9178220
  97.9509700  25.8681550  56.0321880  98.7172970  25.7562910  56.5947310
  98.0284390  25.1719520  55.3798650  96.6456460  23.3006620  56.7154770
  96.7260050  22.3534130  56.8272170  97.5376210  23.6313500  56.8215430
  97.4471170  33.4502010  63.8189310  98.1833650  32.9017470  64.0897880
  97.8312090  34.3158020  63.6795300  94.3316650  29.5175580  59.6930820
  93.4056430  29.7596720  59.6836230  94.7973080  30.3449840  59.5715570
  96.4529450  32.6348080  73.0074890  97.2542180  32.9560130  73.4210290
  95.9381270  32.2743660  73.7294800 100.5573480  32.6232320  55.6414880
 101.3502090  32.9121150  55.1896670 100.0377830  32.1924490  54.9627360
 105.2894080  28.7427950  72.9550300 104.6832240  28.7659550  72.2146050
 104.9848190  28.0110990  73.4917550 106.7194450  32.4708240  71.5659710
 107.6716200  32.3866260  71.5159950 106.5722670  33.1349950  72.2393500
  94.1727260  25.1221540  71.9510940  94.6766280  24.5428820  72.5227170
  93.4334680  25.4061770  72.4887310 101.0750880  27.8435730  55.5057230
 100.9701520  27.2288080  56.2318610 100.9075100  27.3201620  54.7220240
 101.2265200  26.5292530  71.4846460 100.4610870  27.0977530  71.4001130
 101.4081160  26.2368740  70.5914690 104.3153610  26.9055760  56.1099220
 103.7663710  27.3525060  56.7541960 104.9372870  26.4005010  56.6336890
 108.3688550  28.2597860  72.0421480 109.1098020  28.5973620  71.5388940
 107.6061230  28.4289920  71.4891250  96.2050340  23.2651130  72.8461010
  96.2455680  22.9665000  73.7546240  97.0595840  23.6658740  72.6868530
  99.9828730  25.8646680  58.0064520 100.4045150  25.6986550  58.8495910
 100.1079570  25.0546910  57.5119660  98.1456150  21.8443230  70.8135500
  97.6152610  21.3534180  70.1858840  98.8144220  22.2727430  70.2793430
 102.4956370  24.8884290  55.2541620 103.0162030  24.1733310  54.8882770
 103.1424770  25.5270160  55.5542130 107.0434210  26.3112690  70.5776690
 107.4575230  26.4657770  71.4267110 106.1085210  26.4367910  70.7402470
 107.5156380  23.6508850  72.5815840 108.0977150  22.8961170  72.4936320
 107.6918150  24.1816290  71.8047320  98.6328450  18.8105600  70.8932790
  98.5385320  18.1926350  70.1683660  98.0525840  19.5371890  70.6662700
 101.3989890  17.3678840  67.9260180 100.9507190  17.3903100  67.0805730
 100.7655090  16.9697860  68.5230480 101.8049440  26.2633170  68.5472620
 102.2237550  27.1065900  68.3748860 100.8858070  26.4005210  68.3179400
 104.1413340  23.9949350  69.9310460 104.2609550  23.3990490  70.6705300
 105.0007340  24.0319040  69.5111760 106.4801240  24.5486540  68.5072970
 105.9536460  25.0729160  67.9038110 106.8232580  25.1813930  69.1382700
  98.8787630  21.9379910  54.9522680  98.6776690  21.0747270  55.3136020
  98.7079680  21.8513270  54.0144280  99.6556860  32.5686180  69.6630350
  99.1177950  33.2932240  69.3439050  99.9090820  32.0916520  68.8727690
 100.9082110  20.5370700  71.1886280 101.4981800  20.2286550  71.8764100
 100.0902350  20.0650450  71.3446180 105.7275540  20.1536510  71.4219300
 105.0391060  19.4918050  71.3569290 106.4481560  19.7074780  71.8667760
 106.3575940  16.7488140  57.4809560 106.6378230  15.9056040  57.8368980
 105.5841670  16.9811250  57.9948310  97.6770430  19.0380530  54.9400560
  97.9796330  19.0447960  54.0319710  98.4165020  18.6878390  55.4368220
 102.5119070  33.8037390  69.9217000 102.4377770  34.7072530  70.2289370
 101.6097910  33.4849290  69.8939070 100.8955360  17.9815150  55.9256760
 100.5477360  17.3039140  55.3459210 101.0968130  17.5204660  56.7400150
 103.0604400  32.9695900  57.5443360 103.9555190  33.3080870  57.5662120
 103.0922030  32.2475310  56.9167640  96.7000560  28.3422950  55.7730360
  97.1375430  28.8852620  56.4287940  97.1848290  27.5169900  55.7826700
  93.9146360  31.1311980  63.2250620  94.2449370  30.2633040  62.9929260
  94.3437360  31.3370500  64.0555580  98.5108280  29.4620990  60.8852590
  98.2103820  29.3385960  61.7856500  98.4045770  28.6029580  60.4768320
  94.4036570  31.9982570  65.9632250  93.9667560  32.1783370  66.7956400
  94.9714250  32.7557190  65.8213970  94.2361000  24.5102800  62.3221130
  93.5809840  24.2414440  61.6780830  95.0738950  24.4007280  61.8723110
 108.7250390  28.2251550  68.3485720 107.9110230  28.6548710  68.6111510
 109.1324590  28.8369960  67.7354770 107.1851440  19.3044090  56.5439620
 107.6036320  19.1175070  55.7036280 106.8787500  18.4523140  56.8542550
  95.2736930  24.8955370  66.8624470  95.6409970  24.8082770  67.7420490
  94.7047750  24.1321920  66.7631330  94.8252930  21.8064460  70.7682890
  93.9308980  21.7731220  71.1076600  95.3650480  22.0051250  71.5334140
 108.5128860  18.5896180  72.6534640 109.3899040  18.5979580  73.0368640
 108.5249700  17.8527020  72.0426990  93.4499080  21.7201730  58.2646460
  92.5463160  21.9831930  58.0898120  93.9339700  21.9912900  57.4846420
  95.9926290  20.7767270  56.1740840  96.7017990  20.3550490  55.6888120
  95.2766230  20.8442500  55.5424190  95.6400450  16.8306600  55.2143490
  96.3628580  17.3715540  55.5324710  95.9124970  16.5570020  54.3385030
  95.3292640  16.0812790  65.1166110  95.9768830  15.5310170  64.6761270
  95.7494480  16.3355940  65.9381920 108.7826440  32.9770150  61.8753990
 109.3785510  32.6554720  61.1988410 109.0404590  32.5041970  62.6667260
  95.0824640  16.2368460  67.8591430  94.7339460  16.6932280  68.6249610
  94.7512340  15.3425590  67.9413860  96.6889010  29.4088060  72.0244620
  96.6458640  29.0380970  72.9059080  96.8200020  30.3465630  72.1646440
 100.3895040  30.9647650  67.6254340 100.1486400  31.2322210  66.7384860
 101.3297680  31.1353380  67.6805200 102.5949460  17.4280340  71.3810850
 102.5338350  18.0202170  72.1306260 103.5349840  17.3206300  71.2361110
 105.2324020  17.0850400  71.0203140 105.8464430  17.4029690  70.3584220
 105.7773580  16.5998990  71.6399000  95.7545280  15.7644660  71.1342200
  96.3028270  15.5832710  70.3708310  95.8200590  14.9738770  71.6698510
  96.5277040  32.3550310  69.1442400  95.9337360  32.2235010  69.8832440
  96.5200880  31.5188450  68.6784500 105.9732060  15.6482540  67.3472430
 105.0991900  15.9817650  67.1445360 105.8642810  15.1755720  68.1724300
 106.8804040  17.8553410  68.7314150 106.5517400  17.0405170  68.3515880
 107.8286340  17.8123220  68.6079840 109.3338650  33.6265450  65.7051720
 108.8741620  34.3781260  65.3309740 108.7051110  32.9071920  65.6466520
  96.1589270  29.7208690  68.0950440  95.4323330  29.1013980  68.0276390
  96.2198420  30.1149300  67.2248520  99.7634370  31.9353690  64.8799850
 100.2799390  31.3241050  64.3548110 100.4131750  32.4382470  65.3710860
 102.5029870  32.8262180  65.7068830 102.7907680  32.5716480  64.8301840
 103.0153090  32.2739540  66.2974400 103.7206880  16.5652380  66.2865340
 102.9378670  17.0397880  66.5662100 103.4269810  15.6607210  66.1778520
 108.2727950  17.2675480  64.3314430 108.7136040  17.2120580  63.4836030
 108.0035540  18.1833490  64.4024610  94.4419270  33.0383080  61.3047200
  94.2741310  32.4053760  62.0029090  93.5753780  33.2442480  60.9541390
  95.0647290  16.8699860  58.8079060  95.8226650  16.9828740  58.2343090
  94.6024460  17.7069060  58.7622490 101.6061100  18.9839130  61.7981370
 100.7935610  18.6096020  61.4577250 102.1102740  18.2284210  62.1002560
 106.1086080  15.6481580  63.0364440 106.7115450  16.2201790  63.5112960
 105.3679070  16.2121020  62.8138340 109.2520680  16.0503140  58.3104720
 109.4471310  16.9486590  58.5772150 108.4650550  15.8190220  58.8037670
  96.0481970  31.7316310  58.7497340  95.5229590  32.1124340  58.0459300
  95.9726550  32.3567080  59.4707050  97.4372440  17.3963910  57.3481030
  97.9665200  16.6093710  57.2188980  98.0700760  18.0755100  57.5816560
  99.6310280  17.1339050  60.4026420  99.0013020  16.4326360  60.5696550
  99.0915420  17.8943180  60.1859580 102.5702230  33.7478280  73.0737030
 103.4969540  33.5122550  73.1172990 102.5552660  34.5750280  72.5923060
  99.7565840  16.4123030  72.8378910  99.4750110  16.9156630  72.0739730
 100.1385540  15.6144780  72.4721040  98.6474940  33.6798690  57.6246590
  99.3793760  33.3957970  57.0770480  98.9068610  33.4411970  58.5145970
  97.8089730  29.7963420  57.6292920  97.1798610  30.2648520  58.1778750
  97.9237560  28.9512640  58.0639110 106.3581300  15.8276610  73.4159380
 106.2446750  16.1471220  74.3110900 107.1751040  16.2289120  73.1196660
 105.2639450  23.8469080  43.7794120 105.1833500  22.9323690  43.5085830
 104.8503870  24.3436150  43.0733830 103.3957490  25.6248100  45.6603390
 102.6199590  25.1448540  45.9501960 104.0470420  24.9453750  45.4859550
  97.4123320  25.9367910  46.5379150  96.5808200  25.6816620  46.9375660
  98.0204300  26.0078680  47.2737070 107.4164920  30.0308290  44.4402520
 106.9546450  29.2595530  44.7689690 108.2290470  30.0574360  44.9454970
  97.3924580  29.9708000  46.7337170  97.6952620  29.0805740  46.5547390
  98.1368170  30.5278220  46.5059420  95.8215270  20.8969800  40.3221540
  94.9331970  21.2385770  40.2201420  96.1056460  20.6970120  39.4302370
  93.7848280  23.4975450  46.2061240  94.3564390  22.7297650  46.2064880
  93.7849820  23.7964210  45.2967850 103.6428230  32.3166300  44.0606510
 103.0239670  32.7723800  43.4900950 104.4980010  32.4717760  43.6596210
 102.8366480  28.3005290  45.6673550 102.7674760  27.3595230  45.5062680
 103.5986340  28.3906700  46.2396120  95.0273150  18.9059810  47.9930170
  94.8475990  18.0085560  48.2732930  94.6253230  19.4531680  48.6677120
 103.8671650  21.1075670  45.8942480 104.2436470  20.2347550  45.7816150
 103.7691160  21.4434370  45.0032920  97.9976660  19.4801300  41.3559920
  98.1043410  20.3805030  41.6628680  97.0869020  19.4319270  41.0654570
 107.6495770  18.6026110  42.8270820 108.4705390  18.1122680  42.8696300
 107.6829850  19.1923770  43.5802660  95.6459820  21.4020310  46.6012510
  96.3269930  21.6658680  47.2199910  95.3307870  20.5621180  46.9350520
  99.8384390  22.4487670  45.6885100 100.3462610  22.9468640  46.3290120
 100.3697630  21.6722870  45.5124460  98.1220490  17.0886230  49.9548520
  98.1238930  17.6058620  49.1494420  97.2924800  16.6116410  49.9318450
 104.5091580  27.2005540  41.4538420 103.8908850  27.6654990  40.8901140
 105.0214830  27.8933020  41.8707930  99.3723340  26.7281410  48.1322020
  99.0392720  27.3550330  48.7743090  99.5490020  27.2543290  47.3523690
 107.8857250  20.5426490  45.5998360 107.1812820  20.8311380  46.1801470
 108.2469410  21.3526600  45.2397920  97.8035820  18.7996190  47.9618970
  98.1452630  19.6438240  47.6672840  96.8651630  18.9479930  48.0784310
  98.5842440  28.6962210  49.9471200  99.2016440  29.3713290  49.6655650
  97.7235560  29.1050190  49.8558700  93.8774780  27.8862070  38.8278050
  93.5002760  28.3749170  38.0962950  94.1347850  28.5587350  39.4584580
 101.4863710  16.2878460  44.2863560 101.7938690  15.7325350  43.5699060
 100.5564410  16.4222920  44.1036550 107.0378770  32.0045750  46.5771020
 107.0505930  31.6008040  45.7093280 106.4853990  32.7793040  46.4732450
 108.3324190  28.7261970  41.6661190 108.2220520  27.7836300  41.7910610
 108.3292440  29.0877610  42.5523950 106.4364210  26.9075590  47.9053630
 106.8533000  26.6935700  47.0707090 107.1604030  27.1648380  48.4762250
 103.8744470  24.3527290  41.0223680 102.9473750  24.2864670  41.2512150
 104.0269290  25.2907420  40.9078920 103.8613550  20.6244290  38.0190840
 102.9217220  20.7858250  38.1043300 104.1796810  21.3429970  37.4726830
 107.9041760  25.9147590  41.5258930 107.2854180  25.5767140  40.8785230
 107.8866210  25.2707350  42.2338120 107.3468320  22.0932130  48.9424740
 106.9339500  22.9185840  49.1964730 106.6144270  21.5077170  48.7501100
  99.4801110  24.8792030  43.8043410  99.0758110  24.1669280  43.3089310
  99.5664230  24.5345270  44.6931450  99.9482810  28.5659590  45.9682620
  99.6511100  27.9605060  45.2890400 100.8982630  28.6036900  45.8571980
  98.1929730  21.6535240  47.5842450  98.7444320  21.7630580  46.8095700
  98.7073240  22.0272840  48.2997680 108.0368420  32.1391460  49.6305720
 107.5598980  32.9463650  49.4378330 107.3530210  31.4869790  49.7831930
  99.0401240  28.3041280  52.6190420  98.1429770  28.5281250  52.8663820
  99.0654110  28.4276220  51.6701820 106.0806460  25.1534400  38.5331680
 106.5199740  24.3156830  38.3869500 106.7934880  25.7863800  38.6195820
  97.8672460  25.1754600  51.1947790  97.7280230  26.0477400  51.5635190
  96.9853820  24.8327410  51.0495730 104.1901840  30.0930470  42.5012920
 104.6297750  30.8354800  42.0868310 104.1288730  30.3357040  43.4251880
  99.6652810  31.1176300  53.4032940  99.6368240  31.5219250  52.5361370
  99.5017780  30.1886660  53.2404540  96.1805740  23.7737010  41.3050060
  96.0603340  24.4999100  40.6931330  95.8706630  23.0039920  40.8277970
  93.8191110  26.9452150  47.1118700  93.8971530  27.0800920  46.1674420
  94.4332790  26.2368040  47.3046820  95.0638740  28.6452340  43.5224880
  94.6566820  28.7866930  42.6678480  95.9551750  28.3612500  43.3196090
 104.8817620  32.7944250  50.4291930 105.3962290  32.7052260  51.2314360
 104.0386700  33.1403950  50.7219840 106.8572020  33.0799590  39.8575930
 106.6973160  32.7902530  40.7557760 106.6918730  32.3039720  39.3221160
  99.3360400  32.8598120  41.6347550  99.1602880  31.9433660  41.4215350
  98.4816140  33.2185410  41.8745350 106.5598150  30.5887150  38.4173930
 105.8663310  30.5864440  37.7576210 107.3021010  30.1646470  37.9868100
 106.1248080  32.2149860  42.4922420 106.5805030  31.4339240  42.8061040
 106.4640600  32.9256680  43.0363600  93.8750630  27.9866320  49.6513160
  94.0381670  27.5171680  48.8332530  94.3403080  27.4789880  50.3162000
  98.6469400  17.1172080  44.6873730  98.2037550  17.8981620  44.3558250
  99.2054390  17.4401970  45.3944670 102.9339210  19.9840600  50.2909050
 102.4718580  20.1923620  51.1028990 102.5317320  19.1699950  49.9879720
 107.9343720  21.2049550  51.4205710 107.0837310  20.9055300  51.7414780
 107.7745510  21.4491560  50.5089530 105.0293430  22.7051300  53.5204500
 105.3546840  21.8715050  53.1806730 105.8173760  23.2279820  53.6682830
 101.7628220  16.7382780  39.5679560 101.1382400  16.7342650  40.2932870
 101.6758340  15.8713740  39.1715530 100.6845300  17.6619410  46.5463330
 100.9817630  18.5682240  46.4655350 101.2330860  17.1738190  45.9322900
  98.4383620  22.2405650  42.4154980  98.2124540  22.0242820  43.3201600
  97.6576150  22.6734110  42.0700950 105.6681380  22.2469020  41.0145630
 105.0690270  22.9704820  40.8309250 106.2160990  22.1845800  40.2322080
 100.8782830  23.1391230  53.0815250 100.7826430  22.1985960  52.9315650
 101.7214810  23.3606300  52.6863320 104.2746250  20.8832560  43.0448910
 104.6675820  21.2004760  42.2317600 104.6363100  20.0044440  43.1593430
  96.0093370  19.5504900  51.2349030  95.6156760  20.3980110  51.4421810
  95.3211770  18.9131270  51.4257670 102.5838420  19.6339870  54.3045770
 101.8936740  19.4412070  54.9391860 103.3270720  19.9174510  54.8370070
  93.3110420  17.4733360  45.2679110  93.0223470  18.0436220  45.9804090
  94.0556180  16.9937810  45.6310340  93.4980650  21.4153480  36.4781830
  93.4155320  22.3584240  36.6196820  93.1463710  21.2728390  35.5994180
 104.8601390  23.4738310  47.1399690 104.1282510  23.9825120  47.4889790
 104.4625730  22.6568290  46.8388470 101.2978780  20.1492510  45.5452180
 101.3014840  19.7082460  44.6956720 102.1929900  20.4709840  45.6524000
  97.1481160  20.0319000  44.5046390  96.8081210  20.5094230  45.2613440
  96.3858480  19.5784120  44.1447490 101.3598930  21.1504590  38.5358940
 101.4811750  21.1091070  39.4844760 100.9747440  22.0128740  38.3805670
 105.3227300  18.9271990  46.5522630 105.3400040  19.3780640  47.3964480
 105.0742880  18.0277630  46.7656070 100.3720430  23.4605730  37.9342240
  99.8037330  23.0123980  37.3078150 101.0809430  23.8198510  37.4007390
 108.7498050  16.3404170  52.3909010 109.0743820  15.6093830  52.9166990
 108.7854560  16.0217810  51.4890000  95.4489610  27.3617750  51.8108970
  95.0644400  26.7211420  52.4091930  95.7601800  28.0653870  52.3803700
 101.5986750  24.2094290  47.2917590 101.9656880  23.7352860  48.0378930
 101.4091810  25.0835860  47.6325930  94.4627240  18.9537980  43.4211060
  94.1774160  18.5893650  44.2589680  94.4006100  18.2218440  42.8074200
  99.3886120  23.2502930  49.6101800  99.0843190  24.1294910  49.8352160
 100.3432580  23.3102720  49.6459240  97.9167910  27.4563920  40.2068650
  97.1430170  26.9161540  40.0467370  98.6462540  26.9370530  39.8686410
 108.6755890  26.4529280  45.9995040 109.3955010  26.9484570  45.6091150
 108.4737710  25.7747170  45.3548910 104.1365830  17.8467240  40.1424430
 103.3230440  17.3480410  40.0669740 103.9427780  18.6865490  39.7260780
 104.0574690  26.5238340  51.8864040 103.9912000  25.6034010  51.6321630
 103.4279830  26.6213780  52.6008680 106.8514220  22.2186890  38.4386590
 107.7393840  22.5304120  38.2637930 106.8219310  21.3459140  38.0467170
  97.9605310  27.1244300  43.8447460  98.4783980  26.3212560  43.7904350
  97.5089330  27.0623440  44.6864290 102.8474810  28.3910580  39.1174760
 103.1890510  29.1352810  38.6218080 102.0187520  28.7041700  39.4799590
  95.4449850  24.0905670  50.7573160  95.0864790  24.7559520  51.3446500
  95.1504410  23.2589220  51.1285780  98.6462970  24.5489910  53.6412710
  98.3463110  24.6947090  52.7440530  99.4174210  23.9895200  53.5486100
 103.9891420  29.3458910  51.6367840 104.0035960  28.4139870  51.4186750
 103.2816520  29.4318670  52.2757610 105.7302220  27.7126420  44.4820270
 106.0826040  27.1154550  43.8221640 104.8464550  27.3870650  44.6528520
 101.8165500  28.4724110  41.8890680 102.5036630  29.0193320  42.2698270
 101.0297920  29.0164840  41.9240290  93.9557900  24.0896930  37.3807760
  94.8252750  24.3721730  37.6643680  93.4648220  24.9032800  37.2656570
 101.1192710  25.4770140  41.5016040 101.5755490  26.2875390  41.7276230
 100.7680920  25.1593280  42.3334530 103.4225320  30.9876480  48.7308340
 104.0667540  31.1935860  49.4081760 103.7854760  30.2264880  48.2779190
  97.0204490  15.8207790  41.9738560  96.8919120  15.8125690  42.9223480
  96.1966510  16.1590880  41.6229570 104.6957400  28.9908830  47.4485790
 105.3379630  28.2901990  47.5617960 105.2206750  29.7707270  47.2682680
 108.5413120  29.2757450  37.1724930 108.3150700  28.5587890  37.7649570
 108.1509320  29.0269890  36.3346680 106.4695020  29.7903730  50.6521850
 106.8051260  30.3770420  51.3299770 105.5495360  29.6596440  50.8819640
  94.3229150  33.3024310  37.9469390  94.6826790  33.9013650  37.2926660
  94.1821490  33.8484200  38.7204420  94.0198420  17.5798910  51.4345260
  93.3056940  17.7795830  52.0397870  94.4393460  16.8038480  51.8060060
 108.1229370  27.1929390  38.8339090 107.8351070  27.6542080  39.6216970
 108.9181540  26.7327160  39.1023310  94.3071010  31.5679170  52.4211790
  94.4162130  30.6273910  52.2807180  93.6551570  31.8333920  51.7725520
 102.2983600  29.8395060  53.8209910 101.9780470  29.1204300  54.3655600
 101.6241960  30.5150130  53.8945970 100.3397770  30.6855510  38.7643060
 100.3307870  31.4185200  38.1487570  99.4196130  30.4387090  38.8570020
  95.9404410  25.9070400  39.5089820  95.3332360  26.6469300  39.5185120
  96.4153760  25.9969760  38.6828020 105.5137200  20.0721220  49.1846710
 105.8818020  19.2516430  49.5126280 104.6535400  20.1323110  49.6002360
 108.8799230  19.0278160  39.9934270 108.2512390  19.1323830  39.2792500
 108.3851150  19.2474940  40.7828150 103.3257370  30.7483750  37.4268250
 103.4269350  30.5447740  36.4970230 102.4259110  30.4942030  37.6316030
 100.8483260  21.3064110  41.4092150 100.1399410  21.7750450  41.8505760
 101.1327740  20.6486120  42.0437340 102.4739190  22.7260810  49.4084680
 102.9724440  23.2006630  50.0736530 102.6162140  21.8024330  49.6154710
 104.8798690  18.0314770  42.8487940 104.7566470  18.0500900  41.8997450
 105.8283250  18.0793710  42.9686340 101.9675480  33.2670070  42.1215920
 102.2216980  33.2291460  41.1995290 101.0187960  33.1403400  42.1144170
  99.0518280  19.6149190  38.7842860  99.9008810  20.0519340  38.7183050
  98.6849550  19.9269450  39.6114920 107.9728060  24.1861950  43.6974430
 107.0318200  24.2012180  43.8722120 108.2872130  23.3997910  44.1434730
  97.9509700  25.8681550  37.2578390  98.7172970  25.7562910  37.8203820
  98.0284390  25.1719520  36.6055160  96.6456460  23.3006620  37.9411280
  96.7260050  22.3534130  38.0528680  97.5376210  23.6313500  38.0471940
  97.4471170  33.4502010  45.0445820  98.1833650  32.9017470  45.3154390
  97.8312090  34.3158020  44.9051810  94.3316650  29.5175580  40.9187330
  93.4056430  29.7596720  40.9092740  94.7973080  30.3449840  40.7972080
  96.4529450  32.6348080  54.2331400  97.2542180  32.9560130  54.6466800
  95.9381270  32.2743660  54.9551310 100.5573480  32.6232320  36.8671390
 101.3502090  32.9121150  36.4153180 100.0377830  32.1924490  36.1883870
 105.2894080  28.7427950  54.1806810 104.6832240  28.7659550  53.4402560
 104.9848190  28.0110990  54.7174060 106.7194450  32.4708240  52.7916220
 107.6716200  32.3866260  52.7416460 106.5722670  33.1349950  53.4650010
  94.1727260  25.1221540  53.1767450  94.6766280  24.5428820  53.7483680
  93.4334680  25.4061770  53.7143820 101.0750880  27.8435730  36.7313740
 100.9701520  27.2288080  37.4575120 100.9075100  27.3201620  35.9476750
 101.2265200  26.5292530  52.7102970 100.4610870  27.0977530  52.6257640
 101.4081160  26.2368740  51.8171200 104.3153610  26.9055760  37.3355730
 103.7663710  27.3525060  37.9798470 104.9372870  26.4005010  37.8593400
 108.3688550  28.2597860  53.2677990 109.1098020  28.5973620  52.7645450
 107.6061230  28.4289920  52.7147760  96.2050340  23.2651130  54.0717520
  96.2455680  22.9665000  54.9802750  97.0595840  23.6658740  53.9125040
  99.9828730  25.8646680  39.2321030 100.4045150  25.6986550  40.0752420
 100.1079570  25.0546910  38.7376170  98.1456150  21.8443230  52.0392010
  97.6152610  21.3534180  51.4115350  98.8144220  22.2727430  51.5049940
 102.4956370  24.8884290  36.4798130 103.0162030  24.1733310  36.1139280
 103.1424770  25.5270160  36.7798640 107.0434210  26.3112690  51.8033200
 107.4575230  26.4657770  52.6523620 106.1085210  26.4367910  51.9658980
 107.5156380  23.6508850  53.8072350 108.0977150  22.8961170  53.7192830
 107.6918150  24.1816290  53.0303830  98.6328450  18.8105600  52.1189300
  98.5385320  18.1926350  51.3940170  98.0525840  19.5371890  51.8919210
 101.3989890  17.3678840  49.1516690 100.9507190  17.3903100  48.3062240
 100.7655090  16.9697860  49.7486990 101.8049440  26.2633170  49.7729130
 102.2237550  27.1065900  49.6005370 100.8858070  26.4005210  49.5435910
 104.1413340  23.9949350  51.1566970 104.2609550  23.3990490  51.8961810
 105.0007340  24.0319040  50.7368270 106.4801240  24.5486540  49.7329480
 105.9536460  25.0729160  49.1294620 106.8232580  25.1813930  50.3639210
  98.8787630  21.9379910  36.1779190  98.6776690  21.0747270  36.5392530
  98.7079680  21.8513270  35.2400790  99.6556860  32.5686180  50.8886860
  99.1177950  33.2932240  50.5695560  99.9090820  32.0916520  50.0984200
 100.9082110  20.5370700  52.4142790 101.4981800  20.2286550  53.1020610
 100.0902350  20.0650450  52.5702690 105.7275540  20.1536510  52.6475810
 105.0391060  19.4918050  52.5825800 106.4481560  19.7074780  53.0924270
 106.3575940  16.7488140  38.7066070 106.6378230  15.9056040  39.0625490
 105.5841670  16.9811250  39.2204820  97.6770430  19.0380530  36.1657070
  97.9796330  19.0447960  35.2576220  98.4165020  18.6878390  36.6624730
 102.5119070  33.8037390  51.1473510 102.4377770  34.7072530  51.4545880
 101.6097910  33.4849290  51.1195580 100.8955360  17.9815150  37.1513270
 100.5477360  17.3039140  36.5715720 101.0968130  17.5204660  37.9656660
 103.0604400  32.9695900  38.7699870 103.9555190  33.3080870  38.7918630
 103.0922030  32.2475310  38.1424150  96.7000560  28.3422950  36.9986870
  97.1375430  28.8852620  37.6544450  97.1848290  27.5169900  37.0083210
  93.9146360  31.1311980  44.4507130  94.2449370  30.2633040  44.2185770
  94.3437360  31.3370500  45.2812090  98.5108280  29.4620990  42.1109100
  98.2103820  29.3385960  43.0113010  98.4045770  28.6029580  41.7024830
  94.4036570  31.9982570  47.1888760  93.9667560  32.1783370  48.0212910
  94.9714250  32.7557190  47.0470480  94.2361000  24.5102800  43.5477640
  93.5809840  24.2414440  42.9037340  95.0738950  24.4007280  43.0979620
 108.7250390  28.2251550  49.5742230 107.9110230  28.6548710  49.8368020
 109.1324590  28.8369960  48.9611280 107.1851440  19.3044090  37.7696130
 107.6036320  19.1175070  36.9292790 106.8787500  18.4523140  38.0799060
  95.2736930  24.8955370  48.0880980  95.6409970  24.8082770  48.9677000
  94.7047750  24.1321920  47.9887840  94.8252930  21.8064460  51.9939400
  93.9308980  21.7731220  52.3333110  95.3650480  22.0051250  52.7590650
 108.5128860  18.5896180  53.8791150 109.3899040  18.5979580  54.2625150
 108.5249700  17.8527020  53.2683500  93.4499080  21.7201730  39.4902970
  92.5463160  21.9831930  39.3154630  93.9339700  21.9912900  38.7102930
  95.9926290  20.7767270  37.3997350  96.7017990  20.3550490  36.9144630
  95.2766230  20.8442500  36.7680700  95.6400450  16.8306600  36.4400000
  96.3628580  17.3715540  36.7581220  95.9124970  16.5570020  35.5641540
  95.3292640  16.0812790  46.3422620  95.9768830  15.5310170  45.9017780
  95.7494480  16.3355940  47.1638430 108.7826440  32.9770150  43.1010500
 109.3785510  32.6554720  42.4244920 109.0404590  32.5041970  43.8923770
  95.0824640  16.2368460  49.0847940  94.7339460  16.6932280  49.8506120
  94.7512340  15.3425590  49.1670370  96.6889010  29.4088060  53.2501130
  96.6458640  29.0380970  54.1315590  96.8200020  30.3465630  53.3902950
 100.3895040  30.9647650  48.8510850 100.1486400  31.2322210  47.9641370
 101.3297680  31.1353380  48.9061710 102.5949460  17.4280340  52.6067360
 102.5338350  18.0202170  53.3562770 103.5349840  17.3206300  52.4617620
 105.2324020  17.0850400  52.2459650 105.8464430  17.4029690  51.5840730
 105.7773580  16.5998990  52.8655510  95.7545280  15.7644660  52.3598710
  96.3028270  15.5832710  51.5964820  95.8200590  14.9738770  52.8955020
  96.5277040  32.3550310  50.3698910  95.9337360  32.2235010  51.1088950
  96.5200880  31.5188450  49.9041010 105.9732060  15.6482540  48.5728940
 105.0991900  15.9817650  48.3701870 105.8642810  15.1755720  49.3980810
 106.8804040  17.8553410  49.9570660 106.5517400  17.0405170  49.5772390
 107.8286340  17.8123220  49.8336350 109.3338650  33.6265450  46.9308230
 108.8741620  34.3781260  46.5566250 108.7051110  32.9071920  46.8723030
  96.1589270  29.7208690  49.3206950  95.4323330  29.1013980  49.2532900
  96.2198420  30.1149300  48.4505030  99.7634370  31.9353690  46.1056360
 100.2799390  31.3241050  45.5804620 100.4131750  32.4382470  46.5967370
 102.5029870  32.8262180  46.9325340 102.7907680  32.5716480  46.0558350
 103.0153090  32.2739540  47.5230910 103.7206880  16.5652380  47.5121850
 102.9378670  17.0397880  47.7918610 103.4269810  15.6607210  47.4035030
 108.2727950  17.2675480  45.5570940 108.7136040  17.2120580  44.7092540
 108.0035540  18.1833490  45.6281120  94.4419270  33.0383080  42.5303710
  94.2741310  32.4053760  43.2285600  93.5753780  33.2442480  42.1797900
  95.0647290  16.8699860  40.0335570  95.8226650  16.9828740  39.4599600
  94.6024460  17.7069060  39.9879000 101.6061100  18.9839130  43.0237880
 100.7935610  18.6096020  42.6833760 102.1102740  18.2284210  43.3259070
 106.1086080  15.6481580  44.2620950 106.7115450  16.2201790  44.7369470
 105.3679070  16.2121020  44.0394850 109.2520680  16.0503140  39.5361230
 109.4471310  16.9486590  39.8028660 108.4650550  15.8190220  40.0294180
  96.0481970  31.7316310  39.9753850  95.5229590  32.1124340  39.2715810
  95.9726550  32.3567080  40.6963560  97.4372440  17.3963910  38.5737540
  97.9665200  16.6093710  38.4445490  98.0700760  18.0755100  38.8073070
  99.6310280  17.1339050  41.6282930  99.0013020  16.4326360  41.7953060
  99.0915420  17.8943180  41.4116090 102.5702230  33.7478280  54.2993540
 103.4969540  33.5122550  54.3429500 102.5552660  34.5750280  53.8179570
  99.7565840  16.4123030  54.0635420  99.4750110  16.9156630  53.2996240
 100.1385540  15.6144780  53.6977550  98.6474940  33.6798690  38.8503100
  99.3793760  33.3957970  38.3026990  98.9068610  33.4411970  39.7402480
  97.8089730  29.7963420  38.8549430  97.1798610  30.2648520  39.4035260
  97.9237560  28.9512640  39.2895620 106.3581300  15.8276610  54.6415890
 106.2446750  16.1471220  55.5367410 107.1751040  16.2289120  54.3453170
 105.2639450  23.8469080  25.0050630 105.1833500  22.9323690  24.7342340
 104.8503870  24.3436150  24.2990340 103.3957490  25.6248100  26.8859900
 102.6199590  25.1448540  27.1758470 104.0470420  24.9453750  26.7116060
  97.4123320  25.9367910  27.7635660  96.5808200  25.6816620  28.1632170
  98.0204300  26.0078680  28.4993580 107.4164920  30.0308290  25.6659030
 106.9546450  29.2595530  25.9946200 108.2290470  30.0574360  26.1711480
  97.3924580  29.9708000  27.9593680  97.6952620  29.0805740  27.7803900
  98.1368170  30.5278220  27.7315930  95.8215270  20.8969800  21.5478050
  94.9331970  21.2385770  21.4457930  96.1056460  20.6970120  20.6558880
  93.7848280  23.4975450  27.4317750  94.3564390  22.7297650  27.4321390
  93.7849820  23.7964210  26.5224360 103.6428230  32.3166300  25.2863020
 103.0239670  32.7723800  24.7157460 104.4980010  32.4717760  24.8852720
 102.8366480  28.3005290  26.8930060 102.7674760  27.3595230  26.7319190
 103.5986340  28.3906700  27.4652630  95.0273150  18.9059810  29.2186680
  94.8475990  18.0085560  29.4989440  94.6253230  19.4531680  29.8933630
 103.8671650  21.1075670  27.1198990 104.2436470  20.2347550  27.0072660
 103.7691160  21.4434370  26.2289430  97.9976660  19.4801300  22.5816430
  98.1043410  20.3805030  22.8885190  97.0869020  19.4319270  22.2911080
 107.6495770  18.6026110  24.0527330 108.4705390  18.1122680  24.0952810
 107.6829850  19.1923770  24.8059170  95.6459820  21.4020310  27.8269020
  96.3269930  21.6658680  28.4456420  95.3307870  20.5621180  28.1607030
  99.8384390  22.4487670  26.9141610 100.3462610  22.9468640  27.5546630
 100.3697630  21.6722870  26.7380970  98.1220490  17.0886230  31.1805030
  98.1238930  17.6058620  30.3750930  97.2924800  16.6116410  31.1574960
 104.5091580  27.2005540  22.6794930 103.8908850  27.6654990  22.1157650
 105.0214830  27.8933020  23.0964440  99.3723340  26.7281410  29.3578530
  99.0392720  27.3550330  29.9999600  99.5490020  27.2543290  28.5780200
 107.8857250  20.5426490  26.8254870 107.1812820  20.8311380  27.4057980
 108.2469410  21.3526600  26.4654430  97.8035820  18.7996190  29.1875480
  98.1452630  19.6438240  28.8929350  96.8651630  18.9479930  29.3040820
  98.5842440  28.6962210  31.1727710  99.2016440  29.3713290  30.8912160
  97.7235560  29.1050190  31.0815210  93.8774780  27.8862070  20.0534560
  93.5002760  28.3749170  19.3219460  94.1347850  28.5587350  20.6841090
 101.4863710  16.2878460  25.5120070 101.7938690  15.7325350  24.7955570
 100.5564410  16.4222920  25.3293060 107.0378770  32.0045750  27.8027530
 107.0505930  31.6008040  26.9349790 106.4853990  32.7793040  27.6988960
 108.3324190  28.7261970  22.8917700 108.2220520  27.7836300  23.0167120
 108.3292440  29.0877610  23.7780460 106.4364210  26.9075590  29.1310140
 106.8533000  26.6935700  28.2963600 107.1604030  27.1648380  29.7018760
 103.8744470  24.3527290  22.2480190 102.9473750  24.2864670  22.4768660
 104.0269290  25.2907420  22.1335430 103.8613550  20.6244290  19.2447350
 102.9217220  20.7858250  19.3299810 104.1796810  21.3429970  18.6983340
 107.9041760  25.9147590  22.7515440 107.2854180  25.5767140  22.1041740
 107.8866210  25.2707350  23.4594630 107.3468320  22.0932130  30.1681250
 106.9339500  22.9185840  30.4221240 106.6144270  21.5077170  29.9757610
  99.4801110  24.8792030  25.0299920  99.0758110  24.1669280  24.5345820
  99.5664230  24.5345270  25.9187960  99.9482810  28.5659590  27.1939130
  99.6511100  27.9605060  26.5146910 100.8982630  28.6036900  27.0828490
  98.1929730  21.6535240  28.8098960  98.7444320  21.7630580  28.0352210
  98.7073240  22.0272840  29.5254190 108.0368420  32.1391460  30.8562230
 107.5598980  32.9463650  30.6634840 107.3530210  31.4869790  31.0088440
  99.0401240  28.3041280  33.8446930  98.1429770  28.5281250  34.0920330
  99.0654110  28.4276220  32.8958330 106.0806460  25.1534400  19.7588190
 106.5199740  24.3156830  19.6126010 106.7934880  25.7863800  19.8452330
  97.8672460  25.1754600  32.4204300  97.7280230  26.0477400  32.7891700
  96.9853820  24.8327410  32.2752240 104.1901840  30.0930470  23.7269430
 104.6297750  30.8354800  23.3124820 104.1288730  30.3357040  24.6508390
  99.6652810  31.1176300  34.6289450  99.6368240  31.5219250  33.7617880
  99.5017780  30.1886660  34.4661050  96.1805740  23.7737010  22.5306570
  96.0603340  24.4999100  21.9187840  95.8706630  23.0039920  22.0534480
  93.8191110  26.9452150  28.3375210  93.8971530  27.0800920  27.3930930
  94.4332790  26.2368040  28.5303330  95.0638740  28.6452340  24.7481390
  94.6566820  28.7866930  23.8934990  95.9551750  28.3612500  24.5452600
 104.8817620  32.7944250  31.6548440 105.3962290  32.7052260  32.4570870
 104.0386700  33.1403950  31.9476350 106.8572020  33.0799590  21.0832440
 106.6973160  32.7902530  21.9814270 106.6918730  32.3039720  20.5477670
  99.3360400  32.8598120  22.8604060  99.1602880  31.9433660  22.6471860
  98.4816140  33.2185410  23.1001860 106.5598150  30.5887150  19.6430440
 105.8663310  30.5864440  18.9832720 107.3021010  30.1646470  19.2124610
 106.1248080  32.2149860  23.7178930 106.5805030  31.4339240  24.0317550
 106.4640600  32.9256680  24.2620110  93.8750630  27.9866320  30.8769670
  94.0381670  27.5171680  30.0589040  94.3403080  27.4789880  31.5418510
  98.6469400  17.1172080  25.9130240  98.2037550  17.8981620  25.5814760
  99.2054390  17.4401970  26.6201180 102.9339210  19.9840600  31.5165560
 102.4718580  20.1923620  32.3285500 102.5317320  19.1699950  31.2136230
 107.9343720  21.2049550  32.6462220 107.0837310  20.9055300  32.9671290
 107.7745510  21.4491560  31.7346040 105.0293430  22.7051300  34.7461010
 105.3546840  21.8715050  34.4063240 105.8173760  23.2279820  34.8939340
 101.7628220  16.7382780  20.7936070 101.1382400  16.7342650  21.5189380
 101.6758340  15.8713740  20.3972040 100.6845300  17.6619410  27.7719840
 100.9817630  18.5682240  27.6911860 101.2330860  17.1738190  27.1579410
  98.4383620  22.2405650  23.6411490  98.2124540  22.0242820  24.5458110
  97.6576150  22.6734110  23.2957460 105.6681380  22.2469020  22.2402140
 105.0690270  22.9704820  22.0565760 106.2160990  22.1845800  21.4578590
 100.8782830  23.1391230  34.3071760 100.7826430  22.1985960  34.1572160
 101.7214810  23.3606300  33.9119830 104.2746250  20.8832560  24.2705420
 104.6675820  21.2004760  23.4574110 104.6363100  20.0044440  24.3849940
  96.0093370  19.5504900  32.4605540  95.6156760  20.3980110  32.6678320
  95.3211770  18.9131270  32.6514180 102.5838420  19.6339870  35.5302280
 101.8936740  19.4412070  36.1648370 103.3270720  19.9174510  36.0626580
  93.3110420  17.4733360  26.4935620  93.0223470  18.0436220  27.2060600
  94.0556180  16.9937810  26.8566850  93.4980650  21.4153480  17.7038340
  93.4155320  22.3584240  17.8453330  93.1463710  21.2728390  16.8250690
 104.8601390  23.4738310  28.3656200 104.1282510  23.9825120  28.7146300
 104.4625730  22.6568290  28.0644980 101.2978780  20.1492510  26.7708690
 101.3014840  19.7082460  25.9213230 102.1929900  20.4709840  26.8780510
  97.1481160  20.0319000  25.7302900  96.8081210  20.5094230  26.4869950
  96.3858480  19.5784120  25.3704000 101.3598930  21.1504590  19.7615450
 101.4811750  21.1091070  20.7101270 100.9747440  22.0128740  19.6062180
 105.3227300  18.9271990  27.7779140 105.3400040  19.3780640  28.6220990
 105.0742880  18.0277630  27.9912580 100.3720430  23.4605730  19.1598750
  99.8037330  23.0123980  18.5334660 101.0809430  23.8198510  18.6263900
 108.7498050  16.3404170  33.6165520 109.0743820  15.6093830  34.1423500
 108.7854560  16.0217810  32.7146510  95.4489610  27.3617750  33.0365480
  95.0644400  26.7211420  33.6348440  95.7601800  28.0653870  33.6060210
 101.5986750  24.2094290  28.5174100 101.9656880  23.7352860  29.2635440
 101.4091810  25.0835860  28.8582440  94.4627240  18.9537980  24.6467570
  94.1774160  18.5893650  25.4846190  94.4006100  18.2218440  24.0330710
  99.3886120  23.2502930  30.8358310  99.0843190  24.1294910  31.0608670
 100.3432580  23.3102720  30.8715750  97.9167910  27.4563920  21.4325160
  97.1430170  26.9161540  21.2723880  98.6462540  26.9370530  21.0942920
 108.6755890  26.4529280  27.2251550 109.3955010  26.9484570  26.8347660
 108.4737710  25.7747170  26.5805420 104.1365830  17.8467240  21.3680940
 103.3230440  17.3480410  21.2926250 103.9427780  18.6865490  20.9517290
 104.0574690  26.5238340  33.1120550 103.9912000  25.6034010  32.8578140
 103.4279830  26.6213780  33.8265190 106.8514220  22.2186890  19.6643100
 107.7393840  22.5304120  19.4894440 106.8219310  21.3459140  19.2723680
  97.9605310  27.1244300  25.0703970  98.4783980  26.3212560  25.0160860
  97.5089330  27.0623440  25.9120800 102.8474810  28.3910580  20.3431270
 103.1890510  29.1352810  19.8474590 102.0187520  28.7041700  20.7056100
  95.4449850  24.0905670  31.9829670  95.0864790  24.7559520  32.5703010
  95.1504410  23.2589220  32.3542290  98.6462970  24.5489910  34.8669220
  98.3463110  24.6947090  33.9697040  99.4174210  23.9895200  34.7742610
 103.9891420  29.3458910  32.8624350 104.0035960  28.4139870  32.6443260
 103.2816520  29.4318670  33.5014120 105.7302220  27.7126420  25.7076780
 106.0826040  27.1154550  25.0478150 104.8464550  27.3870650  25.8785030
 101.8165500  28.4724110  23.1147190 102.5036630  29.0193320  23.4954780
 101.0297920  29.0164840  23.1496800  93.9557900  24.0896930  18.6064270
  94.8252750  24.3721730  18.8900190  93.4648220  24.9032800  18.4913080
 101.1192710  25.4770140  22.7272550 101.5755490  26.2875390  22.9532740
 100.7680920  25.1593280  23.5591040 103.4225320  30.9876480  29.9564850
 104.0667540  31.1935860  30.6338270 103.7854760  30.2264880  29.5035700
  97.0204490  15.8207790  23.1995070  96.8919120  15.8125690  24.1479990
  96.1966510  16.1590880  22.8486080 104.6957400  28.9908830  28.6742300
 105.3379630  28.2901990  28.7874470 105.2206750  29.7707270  28.4939190
 108.5413120  29.2757450  18.3981440 108.3150700  28.5587890  18.9906080
 108.1509320  29.0269890  17.5603190 106.4695020  29.7903730  31.8778360
 106.8051260  30.3770420  32.5556280 105.5495360  29.6596440  32.1076150
  94.3229150  33.3024310  19.1725900  94.6826790  33.9013650  18.5183170
  94.1821490  33.8484200  19.9460930  94.0198420  17.5798910  32.6601770
  93.3056940  17.7795830  33.2654380  94.4393460  16.8038480  33.0316570
 108.1229370  27.1929390  20.0595600 107.8351070  27.6542080  20.8473480
 108.9181540  26.7327160  20.3279820  94.3071010  31.5679170  33.6468300
  94.4162130  30.6273910  33.5063690  93.6551570  31.8333920  32.9982030
 102.2983600  29.8395060  35.0466420 101.9780470  29.1204300  35.5912110
 101.6241960  30.5150130  35.1202480 100.3397770  30.6855510  19.9899570
 100.3307870  31.4185200  19.3744080  99.4196130  30.4387090  20.0826530
  95.9404410  25.9070400  20.7346330  95.3332360  26.6469300  20.7441630
  96.4153760  25.9969760  19.9084530 105.5137200  20.0721220  30.4103220
 105.8818020  19.2516430  30.7382790 104.6535400  20.1323110  30.8258870
 108.8799230  19.0278160  21.2190780 108.2512390  19.1323830  20.5049010
 108.3851150  19.2474940  22.0084660 103.3257370  30.7483750  18.6524760
 103.4269350  30.5447740  17.7226740 102.4259110  30.4942030  18.8572540
 100.8483260  21.3064110  22.6348660 100.1399410  21.7750450  23.0762270
 101.1327740  20.6486120  23.2693850 102.4739190  22.7260810  30.6341190
 102.9724440  23.2006630  31.2993040 102.6162140  21.8024330  30.8411220
 104.8798690  18.0314770  24.0744450 104.7566470  18.0500900  23.1253960
 105.8283250  18.0793710  24.1942850 101.9675480  33.2670070  23.3472430
 102.2216980  33.2291460  22.4251800 101.0187960  33.1403400  23.3400680
  99.0518280  19.6149190  20.0099370  99.9008810  20.0519340  19.9439560
  98.6849550  19.9269450  20.8371430 107.9728060  24.1861950  24.9230940
 107.0318200  24.2012180  25.0978630 108.2872130  23.3997910  25.3691240
  97.9509700  25.8681550  18.4834900  98.7172970  25.7562910  19.0460330
  98.0284390  25.1719520  17.8311670  96.6456460  23.3006620  19.1667790
  96.7260050  22.3534130  19.2785190  97.5376210  23.6313500  19.2728450
  97.4471170  33.4502010  26.2702330  98.1833650  32.9017470  26.5410900
  97.8312090  34.3158020  26.1308320  94.3316650  29.5175580  22.1443840
  93.4056430  29.7596720  22.1349250  94.7973080  30.3449840  22.0228590
  96.4529450  32.6348080  35.4587910  97.2542180  32.9560130  35.8723310
  95.9381270  32.2743660  36.1807820 100.5573480  32.6232320  18.0927900
 101.3502090  32.9121150  17.6409690 100.0377830  32.1924490  17.4140380
 105.2894080  28.7427950  35.4063320 104.6832240  28.7659550  34.6659070
 104.9848190  28.0110990  35.9430570 106.7194450  32.4708240  34.0172730
 107.6716200  32.3866260  33.9672970 106.5722670  33.1349950  34.6906520
  94.1727260  25.1221540  34.4023960  94.6766280  24.5428820  34.9740190
  93.4334680  25.4061770  34.9400330 101.0750880  27.8435730  17.9570250
 100.9701520  27.2288080  18.6831630 100.9075100  27.3201620  17.1733260
 101.2265200  26.5292530  33.9359480 100.4610870  27.0977530  33.8514150
 101.4081160  26.2368740  33.0427710 104.3153610  26.9055760  18.5612240
 103.7663710  27.3525060  19.2054980 104.9372870  26.4005010  19.0849910
 108.3688550  28.2597860  34.4934500 109.1098020  28.5973620  33.9901960
 107.6061230  28.4289920  33.9404270  96.2050340  23.2651130  35.2974030
  96.2455680  22.9665000  36.2059260  97.0595840  23.6658740  35.1381550
  99.9828730  25.8646680  20.4577540 100.4045150  25.6986550  21.3008930
 100.1079570  25.0546910  19.9632680  98.1456150  21.8443230  33.2648520
  97.6152610  21.3534180  32.6371860  98.8144220  22.2727430  32.7306450
 102.4956370  24.8884290  17.7054640 103.0162030  24.1733310  17.3395790
 103.1424770  25.5270160  18.0055150 107.0434210  26.3112690  33.0289710
 107.4575230  26.4657770  33.8780130 106.1085210  26.4367910  33.1915490
 107.5156380  23.6508850  35.0328860 108.0977150  22.8961170  34.9449340
 107.6918150  24.1816290  34.2560340  98.6328450  18.8105600  33.3445810
  98.5385320  18.1926350  32.6196680  98.0525840  19.5371890  33.1175720
 101.3989890  17.3678840  30.3773200 100.9507190  17.3903100  29.5318750
 100.7655090  16.9697860  30.9743500 101.8049440  26.2633170  30.9985640
 102.2237550  27.1065900  30.8261880 100.8858070  26.4005210  30.7692420
 104.1413340  23.9949350  32.3823480 104.2609550  23.3990490  33.1218320
 105.0007340  24.0319040  31.9624780 106.4801240  24.5486540  30.9585990
 105.9536460  25.0729160  30.3551130 106.8232580  25.1813930  31.5895720
  98.8787630  21.9379910  17.4035700  98.6776690  21.0747270  17.7649040
  98.7079680  21.8513270  16.4657300  99.6556860  32.5686180  32.1143370
  99.1177950  33.2932240  31.7952070  99.9090820  32.0916520  31.3240710
 100.9082110  20.5370700  33.6399300 101.4981800  20.2286550  34.3277120
 100.0902350  20.0650450  33.7959200 105.7275540  20.1536510  33.8732320
 105.0391060  19.4918050  33.8082310 106.4481560  19.7074780  34.3180780
 106.3575940  16.7488140  19.9322580 106.6378230  15.9056040  20.2882000
 105.5841670  16.9811250  20.4461330  97.6770430  19.0380530  17.3913580
  97.9796330  19.0447960  16.4832730  98.4165020  18.6878390  17.8881240
 102.5119070  33.8037390  32.3730020 102.4377770  34.7072530  32.6802390
 101.6097910  33.4849290  32.3452090 100.8955360  17.9815150  18.3769780
 100.5477360  17.3039140  17.7972230 101.0968130  17.5204660  19.1913170
 103.0604400  32.9695900  19.9956380 103.9555190  33.3080870  20.0175140
 103.0922030  32.2475310  19.3680660  96.7000560  28.3422950  18.2243380
  97.1375430  28.8852620  18.8800960  97.1848290  27.5169900  18.2339720
  93.9146360  31.1311980  25.6763640  94.2449370  30.2633040  25.4442280
  94.3437360  31.3370500  26.5068600  98.5108280  29.4620990  23.3365610
  98.2103820  29.3385960  24.2369520  98.4045770  28.6029580  22.9281340
  94.4036570  31.9982570  28.4145270  93.9667560  32.1783370  29.2469420
  94.9714250  32.7557190  28.2726990  94.2361000  24.5102800  24.7734150
  93.5809840  24.2414440  24.1293850  95.0738950  24.4007280  24.3236130
 108.7250390  28.2251550  30.7998740 107.9110230  28.6548710  31.0624530
 109.1324590  28.8369960  30.1867790 107.1851440  19.3044090  18.9952640
 107.6036320  19.1175070  18.1549300 106.8787500  18.4523140  19.3055570
  95.2736930  24.8955370  29.3137490  95.6409970  24.8082770  30.1933510
  94.7047750  24.1321920  29.2144350  94.8252930  21.8064460  33.2195910
  93.9308980  21.7731220  33.5589620  95.3650480  22.0051250  33.9847160
 108.5128860  18.5896180  35.1047660 109.3899040  18.5979580  35.4881660
 108.5249700  17.8527020  34.4940010  93.4499080  21.7201730  20.7159480
  92.5463160  21.9831930  20.5411140  93.9339700  21.9912900  19.9359440
  95.9926290  20.7767270  18.6253860  96.7017990  20.3550490  18.1401140
  95.2766230  20.8442500  17.9937210  95.6400450  16.8306600  17.6656510
  96.3628580  17.3715540  17.9837730  95.9124970  16.5570020  16.7898050
  95.3292640  16.0812790  27.5679130  95.9768830  15.5310170  27.1274290
  95.7494480  16.3355940  28.3894940 108.7826440  32.9770150  24.3267010
 109.3785510  32.6554720  23.6501430 109.0404590  32.5041970  25.1180280
  95.0824640  16.2368460  30.3104450  94.7339460  16.6932280  31.0762630
  94.7512340  15.3425590  30.3926880  96.6889010  29.4088060  34.4757640
  96.6458640  29.0380970  35.3572100  96.8200020  30.3465630  34.6159460
 100.3895040  30.9647650  30.0767360 100.1486400  31.2322210  29.1897880
 101.3297680  31.1353380  30.1318220 102.5949460  17.4280340  33.8323870
 102.5338350  18.0202170  34.5819280 103.5349840  17.3206300  33.6874130
 105.2324020  17.0850400  33.4716160 105.8464430  17.4029690  32.8097240
 105.7773580  16.5998990  34.0912020  95.7545280  15.7644660  33.5855220
  96.3028270  15.5832710  32.8221330  95.8200590  14.9738770  34.1211530
  96.5277040  32.3550310  31.5955420  95.9337360  32.2235010  32.3345460
  96.5200880  31.5188450  31.1297520 105.9732060  15.6482540  29.7985450
 105.0991900  15.9817650  29.5958380 105.8642810  15.1755720  30.6237320
 106.8804040  17.8553410  31.1827170 106.5517400  17.0405170  30.8028900
 107.8286340  17.8123220  31.0592860 109.3338650  33.6265450  28.1564740
 108.8741620  34.3781260  27.7822760 108.7051110  32.9071920  28.0979540
  96.1589270  29.7208690  30.5463460  95.4323330  29.1013980  30.4789410
  96.2198420  30.1149300  29.6761540  99.7634370  31.9353690  27.3312870
 100.2799390  31.3241050  26.8061130 100.4131750  32.4382470  27.8223880
 102.5029870  32.8262180  28.1581850 102.7907680  32.5716480  27.2814860
 103.0153090  32.2739540  28.7487420 103.7206880  16.5652380  28.7378360
 102.9378670  17.0397880  29.0175120 103.4269810  15.6607210  28.6291540
 108.2727950  17.2675480  26.7827450 108.7136040  17.2120580  25.9349050
 108.0035540  18.1833490  26.8537630  94.4419270  33.0383080  23.7560220
  94.2741310  32.4053760  24.4542110  93.5753780  33.2442480  23.4054410
  95.0647290  16.8699860  21.2592080  95.8226650  16.9828740  20.6856110
  94.6024460  17.7069060  21.2135510 101.6061100  18.9839130  24.2494390
 100.7935610  18.6096020  23.9090270 102.1102740  18.2284210  24.5515580
 106.1086080  15.6481580  25.4877460 106.7115450  16.2201790  25.9625980
 105.3679070  16.2121020  25.2651360 109.2520680  16.0503140  20.7617740
 109.4471310  16.9486590  21.0285170 108.4650550  15.8190220  21.2550690
  96.0481970  31.7316310  21.2010360  95.5229590  32.1124340  20.4972320
  95.9726550  32.3567080  21.9220070  97.4372440  17.3963910  19.7994050
  97.9665200  16.6093710  19.6702000  98.0700760  18.0755100  20.0329580
  99.6310280  17.1339050  22.8539440  99.0013020  16.4326360  23.0209570
  99.0915420  17.8943180  22.6372600 102.5702230  33.7478280  35.5250050
 103.4969540  33.5122550  35.5686010 102.5552660  34.5750280  35.0436080
  99.7565840  16.4123030  35.2891930  99.4750110  16.9156630  34.5252750
 100.1385540  15.6144780  34.9234060  98.6474940  33.6798690  20.0759610
  99.3793760  33.3957970  19.5283500  98.9068610  33.4411970  20.9658990
  97.8089730  29.7963420  20.0805940  97.1798610  30.2648520  20.6291770
  97.9237560  28.9512640  20.5152130 106.3581300  15.8276610  35.8672400
 106.2446750  16.1471220  36.7623920 107.1751040  16.2289120  35.5709680
 105.2639450  23.8469080   6.2307140 105.1833500  22.9323690   5.9598850
 104.8503870  24.3436150   5.5246850 103.3957490  25.6248100   8.1116410
 102.6199590  25.1448540   8.4014980 104.0470420  24.9453750   7.9372570
  97.4123320  25.9367910   8.9892170  96.5808200  25.6816620   9.3888680
  98.0204300  26.0078680   9.7250090 107.4164920  30.0308290   6.8915540
 106.9546450  29.2595530   7.2202710 108.2290470  30.0574360   7.3967990
  97.3924580  29.9708000   9.1850190  97.6952620  29.0805740   9.0060410
  98.1368170  30.5278220   8.9572440  95.8215270  20.8969800   2.7734560
  94.9331970  21.2385770   2.6714440  96.1056460  20.6970120   1.8815390
  93.7848280  23.4975450   8.6574260  94.3564390  22.7297650   8.6577900
  93.7849820  23.7964210   7.7480870 103.6428230  32.3166300   6.5119530
 103.0239670  32.7723800   5.9413970 104.4980010  32.4717760   6.1109230
 102.8366480  28.3005290   8.1186570 102.7674760  27.3595230   7.9575700
 103.5986340  28.3906700   8.6909140  95.0273150  18.9059810  10.4443190
  94.8475990  18.0085560  10.7245950  94.6253230  19.4531680  11.1190140
 103.8671650  21.1075670   8.3455500 104.2436470  20.2347550   8.2329170
 103.7691160  21.4434370   7.4545940  97.9976660  19.4801300   3.8072940
  98.1043410  20.3805030   4.1141700  97.0869020  19.4319270   3.5167590
 107.6495770  18.6026110   5.2783840 108.4705390  18.1122680   5.3209320
 107.6829850  19.1923770   6.0315680  95.6459820  21.4020310   9.0525530
  96.3269930  21.6658680   9.6712930  95.3307870  20.5621180   9.3863540
  99.8384390  22.4487670   8.1398120 100.3462610  22.9468640   8.7803140
 100.3697630  21.6722870   7.9637480  98.1220490  17.0886230  12.4061540
  98.1238930  17.6058620  11.6007440  97.2924800  16.6116410  12.3831470
 104.5091580  27.2005540   3.9051440 103.8908850  27.6654990   3.3414160
 105.0214830  27.8933020   4.3220950  99.3723340  26.7281410  10.5835040
  99.0392720  27.3550330  11.2256110  99.5490020  27.2543290   9.8036710
 107.8857250  20.5426490   8.0511380 107.1812820  20.8311380   8.6314490
 108.2469410  21.3526600   7.6910940  97.8035820  18.7996190  10.4131990
  98.1452630  19.6438240  10.1185860  96.8651630  18.9479930  10.5297330
  98.5842440  28.6962210  12.3984220  99.2016440  29.3713290  12.1168670
  97.7235560  29.1050190  12.3071720 101.4863710  16.2878460   6.7376580
 101.7938690  15.7325350   6.0212080 100.5564410  16.4222920   6.5549570
 107.0378770  32.0045750   9.0284040 107.0505930  31.6008040   8.1606300
 106.4853990  32.7793040   8.9245470 108.3324190  28.7261970   4.1174210
 108.2220520  27.7836300   4.2423630 108.3292440  29.0877610   5.0036970
 106.4364210  26.9075590  10.3566650 106.8533000  26.6935700   9.5220110
 107.1604030  27.1648380  10.9275270 103.8744470  24.3527290   3.4736700
 102.9473750  24.2864670   3.7025170 104.0269290  25.2907420   3.3591940
 107.9041760  25.9147590   3.9771950 107.2854180  25.5767140   3.3298250
 107.8866210  25.2707350   4.6851140 107.3468320  22.0932130  11.3937760
 106.9339500  22.9185840  11.6477750 106.6144270  21.5077170  11.2014120
  99.4801110  24.8792030   6.2556430  99.0758110  24.1669280   5.7602330
  99.5664230  24.5345270   7.1444470  99.9482810  28.5659590   8.4195640
  99.6511100  27.9605060   7.7403420 100.8982630  28.6036900   8.3085000
  98.1929730  21.6535240  10.0355470  98.7444320  21.7630580   9.2608720
  98.7073240  22.0272840  10.7510700 108.0368420  32.1391460  12.0818740
 107.5598980  32.9463650  11.8891350 107.3530210  31.4869790  12.2344950
  99.0401240  28.3041280  15.0703440  98.1429770  28.5281250  15.3176840
  99.0654110  28.4276220  14.1214840  97.8672460  25.1754600  13.6460810
  97.7280230  26.0477400  14.0148210  96.9853820  24.8327410  13.5008750
 104.1901840  30.0930470   4.9525940 104.6297750  30.8354800   4.5381330
 104.1288730  30.3357040   5.8764900  99.6652810  31.1176300  15.8545960
  99.6368240  31.5219250  14.9874390  99.5017780  30.1886660  15.6917560
  96.1805740  23.7737010   3.7563080  96.0603340  24.4999100   3.1444350
  95.8706630  23.0039920   3.2790990  93.8191110  26.9452150   9.5631720
  93.8971530  27.0800920   8.6187440  94.4332790  26.2368040   9.7559840
  95.0638740  28.6452340   5.9737900  94.6566820  28.7866930   5.1191500
  95.9551750  28.3612500   5.7709110 104.8817620  32.7944250  12.8804950
 105.3962290  32.7052260  13.6827380 104.0386700  33.1403950  13.1732860
 106.8572020  33.0799590   2.3088950 106.6973160  32.7902530   3.2070780
 106.6918730  32.3039720   1.7734180  99.3360400  32.8598120   4.0860570
  99.1602880  31.9433660   3.8728370  98.4816140  33.2185410   4.3258370
 106.1248080  32.2149860   4.9435440 106.5805030  31.4339240   5.2574060
 106.4640600  32.9256680   5.4876620  93.8750630  27.9866320  12.1026180
  94.0381670  27.5171680  11.2845550  94.3403080  27.4789880  12.7675020
  98.6469400  17.1172080   7.1386750  98.2037550  17.8981620   6.8071270
  99.2054390  17.4401970   7.8457690 102.9339210  19.9840600  12.7422070
 102.4718580  20.1923620  13.5542010 102.5317320  19.1699950  12.4392740
 107.9343720  21.2049550  13.8718730 107.0837310  20.9055300  14.1927800
 107.7745510  21.4491560  12.9602550 105.0293430  22.7051300  15.9717520
 105.3546840  21.8715050  15.6319750 105.8173760  23.2279820  16.1195850
 100.6845300  17.6619410   8.9976350 100.9817630  18.5682240   8.9168370
 101.2330860  17.1738190   8.3835920  98.4383620  22.2405650   4.8668000
  98.2124540  22.0242820   5.7714620  97.6576150  22.6734110   4.5213970
 105.6681380  22.2469020   3.4658650 105.0690270  22.9704820   3.2822270
 106.2160990  22.1845800   2.6835100 100.8782830  23.1391230  15.5328270
 100.7826430  22.1985960  15.3828670 101.7214810  23.3606300  15.1376340
 104.2746250  20.8832560   5.4961930 104.6675820  21.2004760   4.6830620
 104.6363100  20.0044440   5.6106450  96.0093370  19.5504900  13.6862050
  95.6156760  20.3980110  13.8934830  95.3211770  18.9131270  13.8770690
 102.5838420  19.6339870  16.7558790 101.8936740  19.4412070  17.3904880
 103.3270720  19.9174510  17.2883090  93.3110420  17.4733360   7.7192130
  93.0223470  18.0436220   8.4317110  94.0556180  16.9937810   8.0823360
 104.8601390  23.4738310   9.5912710 104.1282510  23.9825120   9.9402810
 104.4625730  22.6568290   9.2901490 101.2978780  20.1492510   7.9965200
 101.3014840  19.7082460   7.1469740 102.1929900  20.4709840   8.1037020
  97.1481160  20.0319000   6.9559410  96.8081210  20.5094230   7.7126460
  96.3858480  19.5784120   6.5960510 105.3227300  18.9271990   9.0035650
 105.3400040  19.3780640   9.8477500 105.0742880  18.0277630   9.2169090
 108.7498050  16.3404170  14.8422030 109.0743820  15.6093830  15.3680010
 108.7854560  16.0217810  13.9403020  95.4489610  27.3617750  14.2621990
  95.0644400  26.7211420  14.8604950  95.7601800  28.0653870  14.8316720
 101.5986750  24.2094290   9.7430610 101.9656880  23.7352860  10.4891950
 101.4091810  25.0835860  10.0838950  94.4627240  18.9537980   5.8724080
  94.1774160  18.5893650   6.7102700  94.4006100  18.2218440   5.2587220
  99.3886120  23.2502930  12.0614820  99.0843190  24.1294910  12.2865180
 100.3432580  23.3102720  12.0972260  97.9167910  27.4563920   2.6581670
  97.1430170  26.9161540   2.4980390  98.6462540  26.9370530   2.3199430
 108.6755890  26.4529280   8.4508060 109.3955010  26.9484570   8.0604170
 108.4737710  25.7747170   7.8061930 104.1365830  17.8467240   2.5937450
 103.3230440  17.3480410   2.5182760 103.9427780  18.6865490   2.1773800
 104.0574690  26.5238340  14.3377060 103.9912000  25.6034010  14.0834650
 103.4279830  26.6213780  15.0521700  97.9605310  27.1244300   6.2960480
  98.4783980  26.3212560   6.2417370  97.5089330  27.0623440   7.1377310
  95.4449850  24.0905670  13.2086180  95.0864790  24.7559520  13.7959520
  95.1504410  23.2589220  13.5798800  98.6462970  24.5489910  16.0925730
  98.3463110  24.6947090  15.1953550  99.4174210  23.9895200  15.9999120
 103.9891420  29.3458910  14.0880860 104.0035960  28.4139870  13.8699770
 103.2816520  29.4318670  14.7270630 105.7302220  27.7126420   6.9333290
 106.0826040  27.1154550   6.2734660 104.8464550  27.3870650   7.1041540
 101.8165500  28.4724110   4.3403700 102.5036630  29.0193320   4.7211290
 101.0297920  29.0164840   4.3753310 101.1192710  25.4770140   3.9529060
 101.5755490  26.2875390   4.1789250 100.7680920  25.1593280   4.7847550
 103.4225320  30.9876480  11.1821360 104.0667540  31.1935860  11.8594780
 103.7854760  30.2264880  10.7292210  97.0204490  15.8207790   4.4251580
  96.8919120  15.8125690   5.3736500  96.1966510  16.1590880   4.0742590
 104.6957400  28.9908830   9.8998810 105.3379630  28.2901990  10.0130980
 105.2206750  29.7707270   9.7195700 106.4695020  29.7903730  13.1034870
 106.8051260  30.3770420  13.7812790 105.5495360  29.6596440  13.3332660
  94.0198420  17.5798910  13.8858280  93.3056940  17.7795830  14.4910890
  94.4393460  16.8038480  14.2573080  94.3071010  31.5679170  14.8724810
  94.4162130  30.6273910  14.7320200  93.6551570  31.8333920  14.2238540
 102.2983600  29.8395060  16.2722930 101.9780470  29.1204300  16.8168620
 101.6241960  30.5150130  16.3458990 105.5137200  20.0721220  11.6359730
 105.8818020  19.2516430  11.9639300 104.6535400  20.1323110  12.0515380
 108.8799230  19.0278160   2.4447290 108.2512390  19.1323830   1.7305520
 108.3851150  19.2474940   3.2341170 100.8483260  21.3064110   3.8605170
 100.1399410  21.7750450   4.3018780 101.1327740  20.6486120   4.4950360
 102.4739190  22.7260810  11.8597700 102.9724440  23.2006630  12.5249550
 102.6162140  21.8024330  12.0667730 104.8798690  18.0314770   5.3000960
 104.7566470  18.0500900   4.3510470 105.8283250  18.0793710   5.4199360
 101.9675480  33.2670070   4.5728940 102.2216980  33.2291460   3.6508310
 101.0187960  33.1403400   4.5657190 107.9728060  24.1861950   6.1487450
 107.0318200  24.2012180   6.3235140 108.2872130  23.3997910   6.5947750
  97.4471170  33.4502010   7.4958840  98.1833650  32.9017470   7.7667410
  97.8312090  34.3158020   7.3564830  94.3316650  29.5175580   3.3700350
  93.4056430  29.7596720   3.3605760  94.7973080  30.3449840   3.2485100
  96.4529450  32.6348080  16.6844420  97.2542180  32.9560130  17.0979820
  95.9381270  32.2743660  17.4064330 105.2894080  28.7427950  16.6319830
 104.6832240  28.7659550  15.8915580 104.9848190  28.0110990  17.1687080
 106.7194450  32.4708240  15.2429240 107.6716200  32.3866260  15.1929480
 106.5722670  33.1349950  15.9163030  94.1727260  25.1221540  15.6280470
  94.6766280  24.5428820  16.1996700  93.4334680  25.4061770  16.1656840
 101.2265200  26.5292530  15.1615990 100.4610870  27.0977530  15.0770660
 101.4081160  26.2368740  14.2684220 108.3688550  28.2597860  15.7191010
 109.1098020  28.5973620  15.2158470 107.6061230  28.4289920  15.1660780
  96.2050340  23.2651130  16.5230540  96.2455680  22.9665000  17.4315770
  97.0595840  23.6658740  16.3638060  98.1456150  21.8443230  14.4905030
  97.6152610  21.3534180  13.8628370  98.8144220  22.2727430  13.9562960
 107.0434210  26.3112690  14.2546220 107.4575230  26.4657770  15.1036640
 106.1085210  26.4367910  14.4172000 107.5156380  23.6508850  16.2585370
 108.0977150  22.8961170  16.1705850 107.6918150  24.1816290  15.4816850
  98.6328450  18.8105600  14.5702320  98.5385320  18.1926350  13.8453190
  98.0525840  19.5371890  14.3432230 101.3989890  17.3678840  11.6029710
 100.9507190  17.3903100  10.7575260 100.7655090  16.9697860  12.2000010
 101.8049440  26.2633170  12.2242150 102.2237550  27.1065900  12.0518390
 100.8858070  26.4005210  11.9948930 104.1413340  23.9949350  13.6079990
 104.2609550  23.3990490  14.3474830 105.0007340  24.0319040  13.1881290
 106.4801240  24.5486540  12.1842500 105.9536460  25.0729160  11.5807640
 106.8232580  25.1813930  12.8152230  99.6556860  32.5686180  13.3399880
  99.1177950  33.2932240  13.0208580  99.9090820  32.0916520  12.5497220
 100.9082110  20.5370700  14.8655810 101.4981800  20.2286550  15.5533630
 100.0902350  20.0650450  15.0215710 105.7275540  20.1536510  15.0988830
 105.0391060  19.4918050  15.0338820 106.4481560  19.7074780  15.5437290
 102.5119070  33.8037390  13.5986530 102.4377770  34.7072530  13.9058900
 101.6097910  33.4849290  13.5708600  93.9146360  31.1311980   6.9020150
  94.2449370  30.2633040   6.6698790  94.3437360  31.3370500   7.7325110
  98.5108280  29.4620990   4.5622120  98.2103820  29.3385960   5.4626030
  98.4045770  28.6029580   4.1537850  94.4036570  31.9982570   9.6401780
  93.9667560  32.1783370  10.4725930  94.9714250  32.7557190   9.4983500
  94.2361000  24.5102800   5.9990660  93.5809840  24.2414440   5.3550360
  95.0738950  24.4007280   5.5492640 108.7250390  28.2251550  12.0255250
 107.9110230  28.6548710  12.2881040 109.1324590  28.8369960  11.4124300
  95.2736930  24.8955370  10.5394000  95.6409970  24.8082770  11.4190020
  94.7047750  24.1321920  10.4400860  94.8252930  21.8064460  14.4452420
  93.9308980  21.7731220  14.7846130  95.3650480  22.0051250  15.2103670
 108.5128860  18.5896180  16.3304170 109.3899040  18.5979580  16.7138170
 108.5249700  17.8527020  15.7196520  95.3292640  16.0812790   8.7935640
  95.9768830  15.5310170   8.3530800  95.7494480  16.3355940   9.6151450
 108.7826440  32.9770150   5.5523520 109.3785510  32.6554720   4.8757940
 109.0404590  32.5041970   6.3436790  95.0824640  16.2368460  11.5360960
  94.7339460  16.6932280  12.3019140  94.7512340  15.3425590  11.6183390
  96.6889010  29.4088060  15.7014150  96.6458640  29.0380970  16.5828610
  96.8200020  30.3465630  15.8415970 100.3895040  30.9647650  11.3023870
 100.1486400  31.2322210  10.4154390 101.3297680  31.1353380  11.3574730
 102.5949460  17.4280340  15.0580380 102.5338350  18.0202170  15.8075790
 103.5349840  17.3206300  14.9130640 105.2324020  17.0850400  14.6972670
 105.8464430  17.4029690  14.0353750 105.7773580  16.5998990  15.3168530
  95.7545280  15.7644660  14.8111730  96.3028270  15.5832710  14.0477840
  95.8200590  14.9738770  15.3468040  96.5277040  32.3550310  12.8211930
  95.9337360  32.2235010  13.5601970  96.5200880  31.5188450  12.3554030
 105.9732060  15.6482540  11.0241960 105.0991900  15.9817650  10.8214890
 105.8642810  15.1755720  11.8493830 106.8804040  17.8553410  12.4083680
 106.5517400  17.0405170  12.0285410 107.8286340  17.8123220  12.2849370
 109.3338650  33.6265450   9.3821250 108.8741620  34.3781260   9.0079270
 108.7051110  32.9071920   9.3236050  96.1589270  29.7208690  11.7719970
  95.4323330  29.1013980  11.7045920  96.2198420  30.1149300  10.9018050
  99.7634370  31.9353690   8.5569380 100.2799390  31.3241050   8.0317640
 100.4131750  32.4382470   9.0480390 102.5029870  32.8262180   9.3838360
 102.7907680  32.5716480   8.5071370 103.0153090  32.2739540   9.9743930
 103.7206880  16.5652380   9.9634870 102.9378670  17.0397880  10.2431630
 103.4269810  15.6607210   9.8548050 108.2727950  17.2675480   8.0083960
 108.7136040  17.2120580   7.1605560 108.0035540  18.1833490   8.0794140
  94.4419270  33.0383080   4.9816730  94.2741310  32.4053760   5.6798620
  93.5753780  33.2442480   4.6310920  95.0647290  16.8699860   2.4848590
  95.8226650  16.9828740   1.9112620  94.6024460  17.7069060   2.4392020
 101.6061100  18.9839130   5.4750900 100.7935610  18.6096020   5.1346780
 102.1102740  18.2284210   5.7772090 106.1086080  15.6481580   6.7133970
 106.7115450  16.2201790   7.1882490 105.3679070  16.2121020   6.4907870
 109.2520680  16.0503140   1.9874250 109.4471310  16.9486590   2.2541680
 108.4650550  15.8190220   2.4807200  96.0481970  31.7316310   2.4266870
  95.5229590  32.1124340   1.7228830  95.9726550  32.3567080   3.1476580
  99.6310280  17.1339050   4.0795950  99.0013020  16.4326360   4.2466080
  99.0915420  17.8943180   3.8629110 102.5702230  33.7478280  16.7506560
 103.4969540  33.5122550  16.7942520 102.5552660  34.5750280  16.2692590
  99.7565840  16.4123030  16.5148440  99.4750110  16.9156630  15.7509260
 100.1385540  15.6144780  16.1490570 106.3581300  15.8276610  17.0928910
 106.2446750  16.1471220  17.9880430 107.1751040  16.2289120  16.7966190
 105.2639450   5.0725590  81.3281100 105.1833500   4.1580200  81.0572810
 104.8503870   5.5692660  80.6220810 103.3957490   6.8504610  83.2090370
 102.6199590   6.3705050  83.4988940 104.0470420   6.1710260  83.0346530
  97.4123320   7.1624420  84.0866130  96.5808200   6.9073130  84.4862640
  98.0204300   7.2335190  84.8224050 107.4164920  11.2564800  81.9889500
 106.9546450  10.4852040  82.3176670 108.2290470  11.2830870  82.4941950
  97.3924580  11.1964510  84.2824150  97.6952620  10.3062250  84.1034370
  98.1368170  11.7534730  84.0546400  95.8215270   2.1226310  77.8708520
  94.9331970   2.4642280  77.7688400  96.1056460   1.9226630  76.9789350
  93.7848280   4.7231960  83.7548220  94.3564390   3.9554160  83.7551860
  93.7849820   5.0220720  82.8454830 103.6428230  13.5422810  81.6093490
 103.0239670  13.9980310  81.0387930 104.4980010  13.6974270  81.2083190
 102.8366480   9.5261800  83.2160530 102.7674760   8.5851740  83.0549660
 103.5986340   9.6163210  83.7883100  95.6459820   2.6276820  84.1499490
  96.3269930   2.8915190  84.7686890  95.3307870   1.7877690  84.4837500
  99.8384390   3.6744180  83.2372080 100.3462610   4.1725150  83.8777100
 100.3697630   2.8979380  83.0611440 104.5091580   8.4262050  79.0025400
 103.8908850   8.8911500  78.4388120 105.0214830   9.1189530  79.4194910
  99.3723340   7.9537920  85.6809000  99.0392720   8.5806840  86.3230070
  99.5490020   8.4799800  84.9010670 107.8857250   1.7683000  83.1485340
 107.1812820   2.0567890  83.7288450 108.2469410   2.5783110  82.7884900
  98.5842440   9.9218720  87.4958180  99.2016440  10.5969800  87.2142630
  97.7235560  10.3306700  87.4045680  93.8774780   9.1118580  76.3765030
  93.5002760   9.6005680  75.6449930  94.1347850   9.7843860  77.0071560
 107.0378770  13.2302260  84.1258000 107.0505930  12.8264550  83.2580260
 106.4853990  14.0049550  84.0219430 108.3324190   9.9518480  79.2148170
 108.2220520   9.0092810  79.3397590 108.3292440  10.3134120  80.1010930
 106.4364210   8.1332100  85.4540610 106.8533000   7.9192210  84.6194070
 107.1604030   8.3904890  86.0249230 103.8744470   5.5783800  78.5710660
 102.9473750   5.5121180  78.7999130 104.0269290   6.5163930  78.4565900
 103.8613550   1.8500800  75.5677820 102.9217220   2.0114760  75.6530280
 104.1796810   2.5686480  75.0213810 107.9041760   7.1404100  79.0745910
 107.2854180   6.8023650  78.4272210 107.8866210   6.4963860  79.7825100
 107.3468320   3.3188640  86.4911720 106.9339500   4.1442350  86.7451710
 106.6144270   2.7333680  86.2988080  99.4801110   6.1048540  81.3530390
  99.0758110   5.3925790  80.8576290  99.5664230   5.7601780  82.2418430
  99.9482810   9.7916100  83.5169600  99.6511100   9.1861570  82.8377380
 100.8982630   9.8293410  83.4058960  98.1929730   2.8791750  85.1329430
  98.7444320   2.9887090  84.3582680  98.7073240   3.2529350  85.8484660
 108.0368420  13.3647970  87.1792700 107.5598980  14.1720160  86.9865310
 107.3530210  12.7126300  87.3318910 106.0806460   6.3790910  76.0818660
 106.5199740   5.5413340  75.9356480 106.7934880   7.0120310  76.1682800
  97.8672460   6.4011110  88.7434770  97.7280230   7.2733910  89.1122170
  96.9853820   6.0583920  88.5982710 104.1901840  11.3186980  80.0499900
 104.6297750  12.0611310  79.6355290 104.1288730  11.5613550  80.9738860
  96.1805740   4.9993520  78.8537040  96.0603340   5.7255610  78.2418310
  95.8706630   4.2296430  78.3764950  93.8191110   8.1708660  84.6605680
  93.8971530   8.3057430  83.7161400  94.4332790   7.4624550  84.8533800
  95.0638740   9.8708850  81.0711860  94.6566820  10.0123440  80.2165460
  95.9551750   9.5869010  80.8683070 104.8817620  14.0200760  87.9778910
 105.3962290  13.9308770  88.7801340 104.0386700  14.3660460  88.2706820
 106.8572020  14.3056100  77.4062910 106.6973160  14.0159040  78.3044740
 106.6918730  13.5296230  76.8708140  99.3360400  14.0854630  79.1834530
  99.1602880  13.1690170  78.9702330  98.4816140  14.4441920  79.4232330
 106.5598150  11.8143660  75.9660910 105.8663310  11.8120950  75.3063190
 107.3021010  11.3902980  75.5355080 106.1248080  13.4406370  80.0409400
 106.5805030  12.6595750  80.3548020 106.4640600  14.1513190  80.5850580
  93.8750630   9.2122830  87.2000140  94.0381670   8.7428190  86.3819510
  94.3403080   8.7046390  87.8648980  98.4383620   3.4662160  79.9641960
  98.2124540   3.2499330  80.8688580  97.6576150   3.8990620  79.6187930
 105.6681380   3.4725530  78.5632610 105.0690270   4.1961330  78.3796230
 106.2160990   3.4102310  77.7809060  93.4980650   2.6409990  74.0268810
  93.4155320   3.5840750  74.1683800  93.1463710   2.4984900  73.1481160
 104.8601390   4.6994820  84.6886670 104.1282510   5.2081630  85.0376770
 104.4625730   3.8824800  84.3875450 101.3598930   2.3761100  76.0845920
 101.4811750   2.3347580  77.0331740 100.9747440   3.2385250  75.9292650
 100.3720430   4.6862240  75.4829220  99.8037330   4.2380490  74.8565130
 101.0809430   5.0455020  74.9494370 101.5986750   5.4350800  84.8404570
 101.9656880   4.9609370  85.5865910 101.4091810   6.3092370  85.1812910
  99.3886120   4.4759440  87.1588780  99.0843190   5.3551420  87.3839140
 100.3432580   4.5359230  87.1946220  97.9167910   8.6820430  77.7555630
  97.1430170   8.1418050  77.5954350  98.6462540   8.1627040  77.4173390
 108.6755890   7.6785790  83.5482020 109.3955010   8.1741080  83.1578130
 108.4737710   7.0003680  82.9035890 106.8514220   3.4443400  75.9873570
 107.7393840   3.7560630  75.8124910 106.8219310   2.5715650  75.5954150
  97.9605310   8.3500810  81.3934440  98.4783980   7.5469070  81.3391330
  97.5089330   8.2879950  82.2351270 102.8474810   9.6167090  76.6661740
 103.1890510  10.3609320  76.1705060 102.0187520   9.9298210  77.0286570
  95.4449850   5.3162180  88.3060140  95.0864790   5.9816030  88.8933480
  95.1504410   4.4845730  88.6772760 105.7302220   8.9382930  82.0307250
 106.0826040   8.3411060  81.3708620 104.8464550   8.6127160  82.2015500
 101.8165500   9.6980620  79.4377660 102.5036630  10.2449830  79.8185250
 101.0297920  10.2421350  79.4727270  93.9557900   5.3153440  74.9294740
  94.8252750   5.5978240  75.2130660  93.4648220   6.1289310  74.8143550
 101.1192710   6.7026650  79.0503020 101.5755490   7.5131900  79.2763210
 100.7680920   6.3849790  79.8821510 103.4225320  12.2132990  86.2795320
 104.0667540  12.4192370  86.9568740 103.7854760  11.4521390  85.8266170
 104.6957400  10.2165340  84.9972770 105.3379630   9.5158500  85.1104940
 105.2206750  10.9963780  84.8169660 108.5413120  10.5013960  74.7211910
 108.3150700   9.7844400  75.3136550 108.1509320  10.2526400  73.8833660
 106.4695020  11.0160240  88.2008830 106.8051260  11.6026930  88.8786750
 105.5495360  10.8852950  88.4306620  94.3229150  14.5280820  75.4956370
  94.6826790  15.1270160  74.8413640  94.1821490  15.0740710  76.2691400
 108.1229370   8.4185900  76.3826070 107.8351070   8.8798590  77.1703950
 108.9181540   7.9583670  76.6510290 100.3397770  11.9112020  76.3130040
 100.3307870  12.6441710  75.6974550  99.4196130  11.6643600  76.4057000
  95.9404410   7.1326910  77.0576800  95.3332360   7.8725810  77.0672100
  96.4153760   7.2226270  76.2315000 103.3257370  11.9740260  74.9755230
 103.4269350  11.7704250  74.0457210 102.4259110  11.7198540  75.1803010
 100.8483260   2.5320620  78.9579130 100.1399410   3.0006960  79.3992740
 101.1327740   1.8742630  79.5924320 102.4739190   3.9517320  86.9571660
 102.9724440   4.4263140  87.6223510 102.6162140   3.0280840  87.1641690
 101.9675480  14.4926580  79.6702900 102.2216980  14.4547970  78.7482270
 101.0187960  14.3659910  79.6631150 107.9728060   5.4118460  81.2461410
 107.0318200   5.4268690  81.4209100 108.2872130   4.6254420  81.6921710
  97.9509700   7.0938060  74.8065370  98.7172970   6.9819420  75.3690800
  98.0284390   6.3976030  74.1542140  96.6456460   4.5263130  75.4898260
  96.7260050   3.5790640  75.6015660  97.5376210   4.8570010  75.5958920
  97.4471170  14.6758520  82.5932800  98.1833650  14.1273980  82.8641370
  97.8312090  15.5414530  82.4538790  94.3316650  10.7432090  78.4674310
  93.4056430  10.9853230  78.4579720  94.7973080  11.5706350  78.3459060
 100.5573480  13.8488830  74.4158370 101.3502090  14.1377660  73.9640160
 100.0377830  13.4181000  73.7370850 101.0750880   9.0692240  74.2800720
 100.9701520   8.4544590  75.0062100 100.9075100   8.5458130  73.4963730
 104.3153610   8.1312270  74.8842710 103.7663710   8.5781570  75.5285450
 104.9372870   7.6261520  75.4080380  99.9828730   7.0903190  76.7808010
 100.4045150   6.9243060  77.6239400 100.1079570   6.2803420  76.2863150
 102.4956370   6.1140800  74.0285110 103.0162030   5.3989820  73.6626260
 103.1424770   6.7526670  74.3285620 101.8049440   7.4889680  87.3216110
 102.2237550   8.3322410  87.1492350 100.8858070   7.6261720  87.0922890
 106.4801240   5.7743050  87.2816460 105.9536460   6.2985670  86.6781600
 106.8232580   6.4070440  87.9126190  98.8787630   3.1636420  73.7266170
  98.6776690   2.3003780  74.0879510  98.7079680   3.0769780  72.7887770
  99.6556860  13.7942690  88.4373840  99.1177950  14.5188750  88.1182540
  99.9090820  13.3173030  87.6471180 102.5119070  15.0293900  88.6960490
 102.4377770  15.9329040  89.0032860 101.6097910  14.7105800  88.6682560
 103.0604400  14.1952410  76.3186850 103.9555190  14.5337380  76.3405610
 103.0922030  13.4731820  75.6911130  96.7000560   9.5679460  74.5473850
  97.1375430  10.1109130  75.2031430  97.1848290   8.7426410  74.5570190
  93.9146360  12.3568490  81.9994110  94.2449370  11.4889550  81.7672750
  94.3437360  12.5627010  82.8299070  98.5108280  10.6877500  79.6596080
  98.2103820  10.5642470  80.5599990  98.4045770   9.8286090  79.2511810
  94.4036570  13.2239080  84.7375740  93.9667560  13.4039880  85.5699890
  94.9714250  13.9813700  84.5957460  94.2361000   5.7359310  81.0964620
  93.5809840   5.4670950  80.4524320  95.0738950   5.6263790  80.6466600
 108.7250390   9.4508060  87.1229210 107.9110230   9.8805220  87.3855000
 109.1324590  10.0626470  86.5098260  95.2736930   6.1211880  85.6367960
  95.6409970   6.0339280  86.5163980  94.7047750   5.3578430  85.5374820
  93.4499080   2.9458240  77.0389950  92.5463160   3.2088440  76.8641610
  93.9339700   3.2169410  76.2589910 108.7826440  14.2026660  80.6497480
 109.3785510  13.8811230  79.9731900 109.0404590  13.7298480  81.4410750
 100.3895040  12.1904160  86.3997830 100.1486400  12.4578720  85.5128350
 101.3297680  12.3609890  86.4548690  96.5277040  13.5806820  87.9185890
  95.9337360  13.4491520  88.6575930  96.5200880  12.7444960  87.4527990
 109.3338650  14.8521960  84.4795210 108.8741620  15.6037770  84.1053230
 108.7051110  14.1328430  84.4210010  96.1589270  10.9465200  86.8693930
  95.4323330  10.3270490  86.8019880  96.2198420  11.3405810  85.9992010
  99.7634370  13.1610200  83.6543340 100.2799390  12.5497560  83.1291600
 100.4131750  13.6638980  84.1454350 102.5029870  14.0518690  84.4812320
 102.7907680  13.7972990  83.6045330 103.0153090  13.4996050  85.0717890
  94.4419270  14.2639590  80.0790690  94.2741310  13.6310270  80.7772580
  93.5753780  14.4698990  79.7284880  96.0481970  12.9572820  77.5240830
  95.5229590  13.3380850  76.8202790  95.9726550  13.5823590  78.2450540
  98.6474940  14.9055200  76.3990080  99.3793760  14.6214480  75.8513970
  98.9068610  14.6668480  77.2889460  97.8089730  11.0219930  76.4036410
  97.1798610  11.4905030  76.9522240  97.9237560  10.1769150  76.8382600
 105.2639450   5.0725590  62.5537610 105.1833500   4.1580200  62.2829320
 104.8503870   5.5692660  61.8477320 103.3957490   6.8504610  64.4346880
 102.6199590   6.3705050  64.7245450 104.0470420   6.1710260  64.2603040
  97.4123320   7.1624420  65.3122640  96.5808200   6.9073130  65.7119150
  98.0204300   7.2335190  66.0480560 107.4164920  11.2564800  63.2146010
 106.9546450  10.4852040  63.5433180 108.2290470  11.2830870  63.7198460
  97.3924580  11.1964510  65.5080660  97.6952620  10.3062250  65.3290880
  98.1368170  11.7534730  65.2802910  95.8215270   2.1226310  59.0965030
  94.9331970   2.4642280  58.9944910  96.1056460   1.9226630  58.2045860
  93.7848280   4.7231960  64.9804730  94.3564390   3.9554160  64.9808370
  93.7849820   5.0220720  64.0711340 103.6428230  13.5422810  62.8350000
 103.0239670  13.9980310  62.2644440 104.4980010  13.6974270  62.4339700
 102.8366480   9.5261800  64.4417040 102.7674760   8.5851740  64.2806170
 103.5986340   9.6163210  65.0139610  95.6459820   2.6276820  65.3756000
  96.3269930   2.8915190  65.9943400  95.3307870   1.7877690  65.7094010
  99.8384390   3.6744180  64.4628590 100.3462610   4.1725150  65.1033610
 100.3697630   2.8979380  64.2867950 104.5091580   8.4262050  60.2281910
 103.8908850   8.8911500  59.6644630 105.0214830   9.1189530  60.6451420
  99.3723340   7.9537920  66.9065510  99.0392720   8.5806840  67.5486580
  99.5490020   8.4799800  66.1267180 107.8857250   1.7683000  64.3741850
 107.1812820   2.0567890  64.9544960 108.2469410   2.5783110  64.0141410
  98.5842440   9.9218720  68.7214690  99.2016440  10.5969800  68.4399140
  97.7235560  10.3306700  68.6302190  93.8774780   9.1118580  57.6021540
  93.5002760   9.6005680  56.8706440  94.1347850   9.7843860  58.2328070
 107.0378770  13.2302260  65.3514510 107.0505930  12.8264550  64.4836770
 106.4853990  14.0049550  65.2475940 108.3324190   9.9518480  60.4404680
 108.2220520   9.0092810  60.5654100 108.3292440  10.3134120  61.3267440
 106.4364210   8.1332100  66.6797120 106.8533000   7.9192210  65.8450580
 107.1604030   8.3904890  67.2505740 103.8744470   5.5783800  59.7967170
 102.9473750   5.5121180  60.0255640 104.0269290   6.5163930  59.6822410
 103.8613550   1.8500800  56.7934330 102.9217220   2.0114760  56.8786790
 104.1796810   2.5686480  56.2470320 107.9041760   7.1404100  60.3002420
 107.2854180   6.8023650  59.6528720 107.8866210   6.4963860  61.0081610
 107.3468320   3.3188640  67.7168230 106.9339500   4.1442350  67.9708220
 106.6144270   2.7333680  67.5244590  99.4801110   6.1048540  62.5786900
  99.0758110   5.3925790  62.0832800  99.5664230   5.7601780  63.4674940
  99.9482810   9.7916100  64.7426110  99.6511100   9.1861570  64.0633890
 100.8982630   9.8293410  64.6315470  98.1929730   2.8791750  66.3585940
  98.7444320   2.9887090  65.5839190  98.7073240   3.2529350  67.0741170
 108.0368420  13.3647970  68.4049210 107.5598980  14.1720160  68.2121820
 107.3530210  12.7126300  68.5575420  99.0401240   9.5297790  71.3933910
  98.1429770   9.7537760  71.6407310  99.0654110   9.6532730  70.4445310
 106.0806460   6.3790910  57.3075170 106.5199740   5.5413340  57.1612990
 106.7934880   7.0120310  57.3939310  97.8672460   6.4011110  69.9691280
  97.7280230   7.2733910  70.3378680  96.9853820   6.0583920  69.8239220
 104.1901840  11.3186980  61.2756410 104.6297750  12.0611310  60.8611800
 104.1288730  11.5613550  62.1995370  99.6652810  12.3432810  72.1776430
  99.6368240  12.7475760  71.3104860  99.5017780  11.4143170  72.0148030
  96.1805740   4.9993520  60.0793550  96.0603340   5.7255610  59.4674820
  95.8706630   4.2296430  59.6021460  93.8191110   8.1708660  65.8862190
  93.8971530   8.3057430  64.9417910  94.4332790   7.4624550  66.0790310
  95.0638740   9.8708850  62.2968370  94.6566820  10.0123440  61.4421970
  95.9551750   9.5869010  62.0939580 104.8817620  14.0200760  69.2035420
 105.3962290  13.9308770  70.0057850 104.0386700  14.3660460  69.4963330
 106.8572020  14.3056100  58.6319420 106.6973160  14.0159040  59.5301250
 106.6918730  13.5296230  58.0964650  99.3360400  14.0854630  60.4091040
  99.1602880  13.1690170  60.1958840  98.4816140  14.4441920  60.6488840
 106.5598150  11.8143660  57.1917420 105.8663310  11.8120950  56.5319700
 107.3021010  11.3902980  56.7611590 106.1248080  13.4406370  61.2665910
 106.5805030  12.6595750  61.5804530 106.4640600  14.1513190  61.8107090
  93.8750630   9.2122830  68.4256650  94.0381670   8.7428190  67.6076020
  94.3403080   8.7046390  69.0905490 107.9343720   2.4306060  70.1949200
 107.0837310   2.1311810  70.5158270 107.7745510   2.6748070  69.2833020
 105.0293430   3.9307810  72.2947990 105.3546840   3.0971560  71.9550220
 105.8173760   4.4536330  72.4426320  98.4383620   3.4662160  61.1898470
  98.2124540   3.2499330  62.0945090  97.6576150   3.8990620  60.8444440
 105.6681380   3.4725530  59.7889120 105.0690270   4.1961330  59.6052740
 106.2160990   3.4102310  59.0065570 100.8782830   4.3647740  71.8558740
 100.7826430   3.4242470  71.7059140 101.7214810   4.5862810  71.4606810
  93.4980650   2.6409990  55.2525320  93.4155320   3.5840750  55.3940310
  93.1463710   2.4984900  54.3737670 104.8601390   4.6994820  65.9143180
 104.1282510   5.2081630  66.2633280 104.4625730   3.8824800  65.6131960
 101.3598930   2.3761100  57.3102430 101.4811750   2.3347580  58.2588250
 100.9747440   3.2385250  57.1549160 100.3720430   4.6862240  56.7085730
  99.8037330   4.2380490  56.0821640 101.0809430   5.0455020  56.1750880
  95.4489610   8.5874260  70.5852460  95.0644400   7.9467930  71.1835420
  95.7601800   9.2910380  71.1547190 101.5986750   5.4350800  66.0661080
 101.9656880   4.9609370  66.8122420 101.4091810   6.3092370  66.4069420
  99.3886120   4.4759440  68.3845290  99.0843190   5.3551420  68.6095650
 100.3432580   4.5359230  68.4202730  97.9167910   8.6820430  58.9812140
  97.1430170   8.1418050  58.8210860  98.6462540   8.1627040  58.6429900
 108.6755890   7.6785790  64.7738530 109.3955010   8.1741080  64.3834640
 108.4737710   7.0003680  64.1292400 104.0574690   7.7494850  70.6607530
 103.9912000   6.8290520  70.4065120 103.4279830   7.8470290  71.3752170
 106.8514220   3.4443400  57.2130080 107.7393840   3.7560630  57.0381420
 106.8219310   2.5715650  56.8210660  97.9605310   8.3500810  62.6190950
  98.4783980   7.5469070  62.5647840  97.5089330   8.2879950  63.4607780
 102.8474810   9.6167090  57.8918250 103.1890510  10.3609320  57.3961570
 102.0187520   9.9298210  58.2543080  95.4449850   5.3162180  69.5316650
  95.0864790   5.9816030  70.1189990  95.1504410   4.4845730  69.9029270
  98.6462970   5.7746420  72.4156200  98.3463110   5.9203600  71.5184020
  99.4174210   5.2151710  72.3229590 103.9891420  10.5715420  70.4111330
 104.0035960   9.6396380  70.1930240 103.2816520  10.6575180  71.0501100
 105.7302220   8.9382930  63.2563760 106.0826040   8.3411060  62.5965130
 104.8464550   8.6127160  63.4272010 101.8165500   9.6980620  60.6634170
 102.5036630  10.2449830  61.0441760 101.0297920  10.2421350  60.6983780
  93.9557900   5.3153440  56.1551250  94.8252750   5.5978240  56.4387170
  93.4648220   6.1289310  56.0400060 101.1192710   6.7026650  60.2759530
 101.5755490   7.5131900  60.5019720 100.7680920   6.3849790  61.1078020
 103.4225320  12.2132990  67.5051830 104.0667540  12.4192370  68.1825250
 103.7854760  11.4521390  67.0522680 104.6957400  10.2165340  66.2229280
 105.3379630   9.5158500  66.3361450 105.2206750  10.9963780  66.0426170
 108.5413120  10.5013960  55.9468420 108.3150700   9.7844400  56.5393060
 108.1509320  10.2526400  55.1090170 106.4695020  11.0160240  69.4265340
 106.8051260  11.6026930  70.1043260 105.5495360  10.8852950  69.6563130
  94.3229150  14.5280820  56.7212880  94.6826790  15.1270160  56.0670150
  94.1821490  15.0740710  57.4947910 108.1229370   8.4185900  57.6082580
 107.8351070   8.8798590  58.3960460 108.9181540   7.9583670  57.8766800
  94.3071010  12.7935680  71.1955280  94.4162130  11.8530420  71.0550670
  93.6551570  13.0590430  70.5469010 102.2983600  11.0651570  72.5953400
 101.9780470  10.3460810  73.1399090 101.6241960  11.7406640  72.6689460
 100.3397770  11.9112020  57.5386550 100.3307870  12.6441710  56.9231060
  99.4196130  11.6643600  57.6313510  95.9404410   7.1326910  58.2833310
  95.3332360   7.8725810  58.2928610  96.4153760   7.2226270  57.4571510
 103.3257370  11.9740260  56.2011740 103.4269350  11.7704250  55.2713720
 102.4259110  11.7198540  56.4059520 100.8483260   2.5320620  60.1835640
 100.1399410   3.0006960  60.6249250 101.1327740   1.8742630  60.8180830
 102.4739190   3.9517320  68.1828170 102.9724440   4.4263140  68.8480020
 102.6162140   3.0280840  68.3898200 101.9675480  14.4926580  60.8959410
 102.2216980  14.4547970  59.9738780 101.0187960  14.3659910  60.8887660
 107.9728060   5.4118460  62.4717920 107.0318200   5.4268690  62.6465610
 108.2872130   4.6254420  62.9178220  97.9509700   7.0938060  56.0321880
  98.7172970   6.9819420  56.5947310  98.0284390   6.3976030  55.3798650
  96.6456460   4.5263130  56.7154770  96.7260050   3.5790640  56.8272170
  97.5376210   4.8570010  56.8215430  97.4471170  14.6758520  63.8189310
  98.1833650  14.1273980  64.0897880  97.8312090  15.5414530  63.6795300
  94.3316650  10.7432090  59.6930820  93.4056430  10.9853230  59.6836230
  94.7973080  11.5706350  59.5715570  96.4529450  13.8604590  73.0074890
  97.2542180  14.1816640  73.4210290  95.9381270  13.5000170  73.7294800
 100.5573480  13.8488830  55.6414880 101.3502090  14.1377660  55.1896670
 100.0377830  13.4181000  54.9627360 105.2894080   9.9684460  72.9550300
 104.6832240   9.9916060  72.2146050 104.9848190   9.2367500  73.4917550
 106.7194450  13.6964750  71.5659710 107.6716200  13.6122770  71.5159950
 106.5722670  14.3606460  72.2393500  94.1727260   6.3478050  71.9510940
  94.6766280   5.7685330  72.5227170  93.4334680   6.6318280  72.4887310
 101.0750880   9.0692240  55.5057230 100.9701520   8.4544590  56.2318610
 100.9075100   8.5458130  54.7220240 101.2265200   7.7549040  71.4846460
 100.4610870   8.3234040  71.4001130 101.4081160   7.4625250  70.5914690
 104.3153610   8.1312270  56.1099220 103.7663710   8.5781570  56.7541960
 104.9372870   7.6261520  56.6336890 108.3688550   9.4854370  72.0421480
 109.1098020   9.8230130  71.5388940 107.6061230   9.6546430  71.4891250
  96.2050340   4.4907640  72.8461010  96.2455680   4.1921510  73.7546240
  97.0595840   4.8915250  72.6868530  99.9828730   7.0903190  58.0064520
 100.4045150   6.9243060  58.8495910 100.1079570   6.2803420  57.5119660
  98.1456150   3.0699740  70.8135500  97.6152610   2.5790690  70.1858840
  98.8144220   3.4983940  70.2793430 102.4956370   6.1140800  55.2541620
 103.0162030   5.3989820  54.8882770 103.1424770   6.7526670  55.5542130
 107.0434210   7.5369200  70.5776690 107.4575230   7.6914280  71.4267110
 106.1085210   7.6624420  70.7402470 107.5156380   4.8765360  72.5815840
 108.0977150   4.1217680  72.4936320 107.6918150   5.4072800  71.8047320
 101.8049440   7.4889680  68.5472620 102.2237550   8.3322410  68.3748860
 100.8858070   7.6261720  68.3179400 104.1413340   5.2205860  69.9310460
 104.2609550   4.6247000  70.6705300 105.0007340   5.2575550  69.5111760
 106.4801240   5.7743050  68.5072970 105.9536460   6.2985670  67.9038110
 106.8232580   6.4070440  69.1382700  98.8787630   3.1636420  54.9522680
  98.6776690   2.3003780  55.3136020  98.7079680   3.0769780  54.0144280
  99.6556860  13.7942690  69.6630350  99.1177950  14.5188750  69.3439050
  99.9090820  13.3173030  68.8727690 102.5119070  15.0293900  69.9217000
 102.4377770  15.9329040  70.2289370 101.6097910  14.7105800  69.8939070
 103.0604400  14.1952410  57.5443360 103.9555190  14.5337380  57.5662120
 103.0922030  13.4731820  56.9167640  96.7000560   9.5679460  55.7730360
  97.1375430  10.1109130  56.4287940  97.1848290   8.7426410  55.7826700
  93.9146360  12.3568490  63.2250620  94.2449370  11.4889550  62.9929260
  94.3437360  12.5627010  64.0555580  98.5108280  10.6877500  60.8852590
  98.2103820  10.5642470  61.7856500  98.4045770   9.8286090  60.4768320
  94.4036570  13.2239080  65.9632250  93.9667560  13.4039880  66.7956400
  94.9714250  13.9813700  65.8213970  94.2361000   5.7359310  62.3221130
  93.5809840   5.4670950  61.6780830  95.0738950   5.6263790  61.8723110
 108.7250390   9.4508060  68.3485720 107.9110230   9.8805220  68.6111510
 109.1324590  10.0626470  67.7354770  95.2736930   6.1211880  66.8624470
  95.6409970   6.0339280  67.7420490  94.7047750   5.3578430  66.7631330
  94.8252930   3.0320970  70.7682890  93.9308980   2.9987730  71.1076600
  95.3650480   3.2307760  71.5334140  93.4499080   2.9458240  58.2646460
  92.5463160   3.2088440  58.0898120  93.9339700   3.2169410  57.4846420
 108.7826440  14.2026660  61.8753990 109.3785510  13.8811230  61.1988410
 109.0404590  13.7298480  62.6667260  96.6889010  10.6344570  72.0244620
  96.6458640  10.2637480  72.9059080  96.8200020  11.5722140  72.1646440
 100.3895040  12.1904160  67.6254340 100.1486400  12.4578720  66.7384860
 101.3297680  12.3609890  67.6805200  96.5277040  13.5806820  69.1442400
  95.9337360  13.4491520  69.8832440  96.5200880  12.7444960  68.6784500
 109.3338650  14.8521960  65.7051720 108.8741620  15.6037770  65.3309740
 108.7051110  14.1328430  65.6466520  96.1589270  10.9465200  68.0950440
  95.4323330  10.3270490  68.0276390  96.2198420  11.3405810  67.2248520
  99.7634370  13.1610200  64.8799850 100.2799390  12.5497560  64.3548110
 100.4131750  13.6638980  65.3710860 102.5029870  14.0518690  65.7068830
 102.7907680  13.7972990  64.8301840 103.0153090  13.4996050  66.2974400
  94.4419270  14.2639590  61.3047200  94.2741310  13.6310270  62.0029090
  93.5753780  14.4698990  60.9541390  96.0481970  12.9572820  58.7497340
  95.5229590  13.3380850  58.0459300  95.9726550  13.5823590  59.4707050
 102.5702230  14.9734790  73.0737030 103.4969540  14.7379060  73.1172990
 102.5552660  15.8006790  72.5923060  98.6474940  14.9055200  57.6246590
  99.3793760  14.6214480  57.0770480  98.9068610  14.6668480  58.5145970
  97.8089730  11.0219930  57.6292920  97.1798610  11.4905030  58.1778750
  97.9237560  10.1769150  58.0639110 105.2639450   5.0725590  43.7794120
 105.1833500   4.1580200  43.5085830 104.8503870   5.5692660  43.0733830
 103.3957490   6.8504610  45.6603390 102.6199590   6.3705050  45.9501960
 104.0470420   6.1710260  45.4859550  97.4123320   7.1624420  46.5379150
  96.5808200   6.9073130  46.9375660  98.0204300   7.2335190  47.2737070
 107.4164920  11.2564800  44.4402520 106.9546450  10.4852040  44.7689690
 108.2290470  11.2830870  44.9454970  97.3924580  11.1964510  46.7337170
  97.6952620  10.3062250  46.5547390  98.1368170  11.7534730  46.5059420
  95.8215270   2.1226310  40.3221540  94.9331970   2.4642280  40.2201420
  96.1056460   1.9226630  39.4302370  93.7848280   4.7231960  46.2061240
  94.3564390   3.9554160  46.2064880  93.7849820   5.0220720  45.2967850
 103.6428230  13.5422810  44.0606510 103.0239670  13.9980310  43.4900950
 104.4980010  13.6974270  43.6596210 102.8366480   9.5261800  45.6673550
 102.7674760   8.5851740  45.5062680 103.5986340   9.6163210  46.2396120
  95.6459820   2.6276820  46.6012510  96.3269930   2.8915190  47.2199910
  95.3307870   1.7877690  46.9350520  99.8384390   3.6744180  45.6885100
 100.3462610   4.1725150  46.3290120 100.3697630   2.8979380  45.5124460
 104.5091580   8.4262050  41.4538420 103.8908850   8.8911500  40.8901140
 105.0214830   9.1189530  41.8707930  99.3723340   7.9537920  48.1322020
  99.0392720   8.5806840  48.7743090  99.5490020   8.4799800  47.3523690
 107.8857250   1.7683000  45.5998360 107.1812820   2.0567890  46.1801470
 108.2469410   2.5783110  45.2397920  98.5842440   9.9218720  49.9471200
  99.2016440  10.5969800  49.6655650  97.7235560  10.3306700  49.8558700
  93.8774780   9.1118580  38.8278050  93.5002760   9.6005680  38.0962950
  94.1347850   9.7843860  39.4584580 107.0378770  13.2302260  46.5771020
 107.0505930  12.8264550  45.7093280 106.4853990  14.0049550  46.4732450
 108.3324190   9.9518480  41.6661190 108.2220520   9.0092810  41.7910610
 108.3292440  10.3134120  42.5523950 106.4364210   8.1332100  47.9053630
 106.8533000   7.9192210  47.0707090 107.1604030   8.3904890  48.4762250
 103.8744470   5.5783800  41.0223680 102.9473750   5.5121180  41.2512150
 104.0269290   6.5163930  40.9078920 103.8613550   1.8500800  38.0190840
 102.9217220   2.0114760  38.1043300 104.1796810   2.5686480  37.4726830
 107.9041760   7.1404100  41.5258930 107.2854180   6.8023650  40.8785230
 107.8866210   6.4963860  42.2338120 107.3468320   3.3188640  48.9424740
 106.9339500   4.1442350  49.1964730 106.6144270   2.7333680  48.7501100
  99.4801110   6.1048540  43.8043410  99.0758110   5.3925790  43.3089310
  99.5664230   5.7601780  44.6931450  99.9482810   9.7916100  45.9682620
  99.6511100   9.1861570  45.2890400 100.8982630   9.8293410  45.8571980
  98.1929730   2.8791750  47.5842450  98.7444320   2.9887090  46.8095700
  98.7073240   3.2529350  48.2997680 108.0368420  13.3647970  49.6305720
 107.5598980  14.1720160  49.4378330 107.3530210  12.7126300  49.7831930
  99.0401240   9.5297790  52.6190420  98.1429770   9.7537760  52.8663820
  99.0654110   9.6532730  51.6701820 106.0806460   6.3790910  38.5331680
 106.5199740   5.5413340  38.3869500 106.7934880   7.0120310  38.6195820
  97.8672460   6.4011110  51.1947790  97.7280230   7.2733910  51.5635190
  96.9853820   6.0583920  51.0495730 104.1901840  11.3186980  42.5012920
 104.6297750  12.0611310  42.0868310 104.1288730  11.5613550  43.4251880
  99.6652810  12.3432810  53.4032940  99.6368240  12.7475760  52.5361370
  99.5017780  11.4143170  53.2404540  96.1805740   4.9993520  41.3050060
  96.0603340   5.7255610  40.6931330  95.8706630   4.2296430  40.8277970
  93.8191110   8.1708660  47.1118700  93.8971530   8.3057430  46.1674420
  94.4332790   7.4624550  47.3046820  95.0638740   9.8708850  43.5224880
  94.6566820  10.0123440  42.6678480  95.9551750   9.5869010  43.3196090
 104.8817620  14.0200760  50.4291930 105.3962290  13.9308770  51.2314360
 104.0386700  14.3660460  50.7219840 106.8572020  14.3056100  39.8575930
 106.6973160  14.0159040  40.7557760 106.6918730  13.5296230  39.3221160
  99.3360400  14.0854630  41.6347550  99.1602880  13.1690170  41.4215350
  98.4816140  14.4441920  41.8745350 106.5598150  11.8143660  38.4173930
 105.8663310  11.8120950  37.7576210 107.3021010  11.3902980  37.9868100
 106.1248080  13.4406370  42.4922420 106.5805030  12.6595750  42.8061040
 106.4640600  14.1513190  43.0363600  93.8750630   9.2122830  49.6513160
  94.0381670   8.7428190  48.8332530  94.3403080   8.7046390  50.3162000
 107.9343720   2.4306060  51.4205710 107.0837310   2.1311810  51.7414780
 107.7745510   2.6748070  50.5089530 105.0293430   3.9307810  53.5204500
 105.3546840   3.0971560  53.1806730 105.8173760   4.4536330  53.6682830
  98.4383620   3.4662160  42.4154980  98.2124540   3.2499330  43.3201600
  97.6576150   3.8990620  42.0700950 105.6681380   3.4725530  41.0145630
 105.0690270   4.1961330  40.8309250 106.2160990   3.4102310  40.2322080
 100.8782830   4.3647740  53.0815250 100.7826430   3.4242470  52.9315650
 101.7214810   4.5862810  52.6863320  93.4980650   2.6409990  36.4781830
  93.4155320   3.5840750  36.6196820  93.1463710   2.4984900  35.5994180
 104.8601390   4.6994820  47.1399690 104.1282510   5.2081630  47.4889790
 104.4625730   3.8824800  46.8388470 101.3598930   2.3761100  38.5358940
 101.4811750   2.3347580  39.4844760 100.9747440   3.2385250  38.3805670
 100.3720430   4.6862240  37.9342240  99.8037330   4.2380490  37.3078150
 101.0809430   5.0455020  37.4007390  95.4489610   8.5874260  51.8108970
  95.0644400   7.9467930  52.4091930  95.7601800   9.2910380  52.3803700
 101.5986750   5.4350800  47.2917590 101.9656880   4.9609370  48.0378930
 101.4091810   6.3092370  47.6325930  99.3886120   4.4759440  49.6101800
  99.0843190   5.3551420  49.8352160 100.3432580   4.5359230  49.6459240
  97.9167910   8.6820430  40.2068650  97.1430170   8.1418050  40.0467370
  98.6462540   8.1627040  39.8686410 108.6755890   7.6785790  45.9995040
 109.3955010   8.1741080  45.6091150 108.4737710   7.0003680  45.3548910
 104.0574690   7.7494850  51.8864040 103.9912000   6.8290520  51.6321630
 103.4279830   7.8470290  52.6008680 106.8514220   3.4443400  38.4386590
 107.7393840   3.7560630  38.2637930 106.8219310   2.5715650  38.0467170
  97.9605310   8.3500810  43.8447460  98.4783980   7.5469070  43.7904350
  97.5089330   8.2879950  44.6864290 102.8474810   9.6167090  39.1174760
 103.1890510  10.3609320  38.6218080 102.0187520   9.9298210  39.4799590
  95.4449850   5.3162180  50.7573160  95.0864790   5.9816030  51.3446500
  95.1504410   4.4845730  51.1285780  98.6462970   5.7746420  53.6412710
  98.3463110   5.9203600  52.7440530  99.4174210   5.2151710  53.5486100
 103.9891420  10.5715420  51.6367840 104.0035960   9.6396380  51.4186750
 103.2816520  10.6575180  52.2757610 105.7302220   8.9382930  44.4820270
 106.0826040   8.3411060  43.8221640 104.8464550   8.6127160  44.6528520
 101.8165500   9.6980620  41.8890680 102.5036630  10.2449830  42.2698270
 101.0297920  10.2421350  41.9240290  93.9557900   5.3153440  37.3807760
  94.8252750   5.5978240  37.6643680  93.4648220   6.1289310  37.2656570
 101.1192710   6.7026650  41.5016040 101.5755490   7.5131900  41.7276230
 100.7680920   6.3849790  42.3334530 103.4225320  12.2132990  48.7308340
 104.0667540  12.4192370  49.4081760 103.7854760  11.4521390  48.2779190
 104.6957400  10.2165340  47.4485790 105.3379630   9.5158500  47.5617960
 105.2206750  10.9963780  47.2682680 108.5413120  10.5013960  37.1724930
 108.3150700   9.7844400  37.7649570 108.1509320  10.2526400  36.3346680
 106.4695020  11.0160240  50.6521850 106.8051260  11.6026930  51.3299770
 105.5495360  10.8852950  50.8819640  94.3229150  14.5280820  37.9469390
  94.6826790  15.1270160  37.2926660  94.1821490  15.0740710  38.7204420
 108.1229370   8.4185900  38.8339090 107.8351070   8.8798590  39.6216970
 108.9181540   7.9583670  39.1023310  94.3071010  12.7935680  52.4211790
  94.4162130  11.8530420  52.2807180  93.6551570  13.0590430  51.7725520
 102.2983600  11.0651570  53.8209910 101.9780470  10.3460810  54.3655600
 101.6241960  11.7406640  53.8945970 100.3397770  11.9112020  38.7643060
 100.3307870  12.6441710  38.1487570  99.4196130  11.6643600  38.8570020
  95.9404410   7.1326910  39.5089820  95.3332360   7.8725810  39.5185120
  96.4153760   7.2226270  38.6828020 103.3257370  11.9740260  37.4268250
 103.4269350  11.7704250  36.4970230 102.4259110  11.7198540  37.6316030
 100.8483260   2.5320620  41.4092150 100.1399410   3.0006960  41.8505760
 101.1327740   1.8742630  42.0437340 102.4739190   3.9517320  49.4084680
 102.9724440   4.4263140  50.0736530 102.6162140   3.0280840  49.6154710
 101.9675480  14.4926580  42.1215920 102.2216980  14.4547970  41.1995290
 101.0187960  14.3659910  42.1144170 107.9728060   5.4118460  43.6974430
 107.0318200   5.4268690  43.8722120 108.2872130   4.6254420  44.1434730
  97.9509700   7.0938060  37.2578390  98.7172970   6.9819420  37.8203820
  98.0284390   6.3976030  36.6055160  96.6456460   4.5263130  37.9411280
  96.7260050   3.5790640  38.0528680  97.5376210   4.8570010  38.0471940
  97.4471170  14.6758520  45.0445820  98.1833650  14.1273980  45.3154390
  97.8312090  15.5414530  44.9051810  94.3316650  10.7432090  40.9187330
  93.4056430  10.9853230  40.9092740  94.7973080  11.5706350  40.7972080
  96.4529450  13.8604590  54.2331400  97.2542180  14.1816640  54.6466800
  95.9381270  13.5000170  54.9551310 100.5573480  13.8488830  36.8671390
 101.3502090  14.1377660  36.4153180 100.0377830  13.4181000  36.1883870
 105.2894080   9.9684460  54.1806810 104.6832240   9.9916060  53.4402560
 104.9848190   9.2367500  54.7174060 106.7194450  13.6964750  52.7916220
 107.6716200  13.6122770  52.7416460 106.5722670  14.3606460  53.4650010
  94.1727260   6.3478050  53.1767450  94.6766280   5.7685330  53.7483680
  93.4334680   6.6318280  53.7143820 101.0750880   9.0692240  36.7313740
 100.9701520   8.4544590  37.4575120 100.9075100   8.5458130  35.9476750
 101.2265200   7.7549040  52.7102970 100.4610870   8.3234040  52.6257640
 101.4081160   7.4625250  51.8171200 104.3153610   8.1312270  37.3355730
 103.7663710   8.5781570  37.9798470 104.9372870   7.6261520  37.8593400
 108.3688550   9.4854370  53.2677990 109.1098020   9.8230130  52.7645450
 107.6061230   9.6546430  52.7147760  96.2050340   4.4907640  54.0717520
  96.2455680   4.1921510  54.9802750  97.0595840   4.8915250  53.9125040
  99.9828730   7.0903190  39.2321030 100.4045150   6.9243060  40.0752420
 100.1079570   6.2803420  38.7376170  98.1456150   3.0699740  52.0392010
  97.6152610   2.5790690  51.4115350  98.8144220   3.4983940  51.5049940
 102.4956370   6.1140800  36.4798130 103.0162030   5.3989820  36.1139280
 103.1424770   6.7526670  36.7798640 107.0434210   7.5369200  51.8033200
 107.4575230   7.6914280  52.6523620 106.1085210   7.6624420  51.9658980
 107.5156380   4.8765360  53.8072350 108.0977150   4.1217680  53.7192830
 107.6918150   5.4072800  53.0303830 101.8049440   7.4889680  49.7729130
 102.2237550   8.3322410  49.6005370 100.8858070   7.6261720  49.5435910
 104.1413340   5.2205860  51.1566970 104.2609550   4.6247000  51.8961810
 105.0007340   5.2575550  50.7368270 106.4801240   5.7743050  49.7329480
 105.9536460   6.2985670  49.1294620 106.8232580   6.4070440  50.3639210
  98.8787630   3.1636420  36.1779190  98.6776690   2.3003780  36.5392530
  98.7079680   3.0769780  35.2400790  99.6556860  13.7942690  50.8886860
  99.1177950  14.5188750  50.5695560  99.9090820  13.3173030  50.0984200
 102.5119070  15.0293900  51.1473510 102.4377770  15.9329040  51.4545880
 101.6097910  14.7105800  51.1195580 103.0604400  14.1952410  38.7699870
 103.9555190  14.5337380  38.7918630 103.0922030  13.4731820  38.1424150
  96.7000560   9.5679460  36.9986870  97.1375430  10.1109130  37.6544450
  97.1848290   8.7426410  37.0083210  93.9146360  12.3568490  44.4507130
  94.2449370  11.4889550  44.2185770  94.3437360  12.5627010  45.2812090
  98.5108280  10.6877500  42.1109100  98.2103820  10.5642470  43.0113010
  98.4045770   9.8286090  41.7024830  94.4036570  13.2239080  47.1888760
  93.9667560  13.4039880  48.0212910  94.9714250  13.9813700  47.0470480
  94.2361000   5.7359310  43.5477640  93.5809840   5.4670950  42.9037340
  95.0738950   5.6263790  43.0979620 108.7250390   9.4508060  49.5742230
 107.9110230   9.8805220  49.8368020 109.1324590  10.0626470  48.9611280
  95.2736930   6.1211880  48.0880980  95.6409970   6.0339280  48.9677000
  94.7047750   5.3578430  47.9887840  94.8252930   3.0320970  51.9939400
  93.9308980   2.9987730  52.3333110  95.3650480   3.2307760  52.7590650
  93.4499080   2.9458240  39.4902970  92.5463160   3.2088440  39.3154630
  93.9339700   3.2169410  38.7102930 108.7826440  14.2026660  43.1010500
 109.3785510  13.8811230  42.4244920 109.0404590  13.7298480  43.8923770
  96.6889010  10.6344570  53.2501130  96.6458640  10.2637480  54.1315590
  96.8200020  11.5722140  53.3902950 100.3895040  12.1904160  48.8510850
 100.1486400  12.4578720  47.9641370 101.3297680  12.3609890  48.9061710
  96.5277040  13.5806820  50.3698910  95.9337360  13.4491520  51.1088950
  96.5200880  12.7444960  49.9041010 109.3338650  14.8521960  46.9308230
 108.8741620  15.6037770  46.5566250 108.7051110  14.1328430  46.8723030
  96.1589270  10.9465200  49.3206950  95.4323330  10.3270490  49.2532900
  96.2198420  11.3405810  48.4505030  99.7634370  13.1610200  46.1056360
 100.2799390  12.5497560  45.5804620 100.4131750  13.6638980  46.5967370
 102.5029870  14.0518690  46.9325340 102.7907680  13.7972990  46.0558350
 103.0153090  13.4996050  47.5230910  94.4419270  14.2639590  42.5303710
  94.2741310  13.6310270  43.2285600  93.5753780  14.4698990  42.1797900
  96.0481970  12.9572820  39.9753850  95.5229590  13.3380850  39.2715810
  95.9726550  13.5823590  40.6963560 102.5702230  14.9734790  54.2993540
 103.4969540  14.7379060  54.3429500 102.5552660  15.8006790  53.8179570
  98.6474940  14.9055200  38.8503100  99.3793760  14.6214480  38.3026990
  98.9068610  14.6668480  39.7402480  97.8089730  11.0219930  38.8549430
  97.1798610  11.4905030  39.4035260  97.9237560  10.1769150  39.2895620
 105.2639450   5.0725590  25.0050630 105.1833500   4.1580200  24.7342340
 104.8503870   5.5692660  24.2990340 103.3957490   6.8504610  26.8859900
 102.6199590   6.3705050  27.1758470 104.0470420   6.1710260  26.7116060
  97.4123320   7.1624420  27.7635660  96.5808200   6.9073130  28.1632170
  98.0204300   7.2335190  28.4993580 107.4164920  11.2564800  25.6659030
 106.9546450  10.4852040  25.9946200 108.2290470  11.2830870  26.1711480
  97.3924580  11.1964510  27.9593680  97.6952620  10.3062250  27.7803900
  98.1368170  11.7534730  27.7315930  95.8215270   2.1226310  21.5478050
  94.9331970   2.4642280  21.4457930  96.1056460   1.9226630  20.6558880
  93.7848280   4.7231960  27.4317750  94.3564390   3.9554160  27.4321390
  93.7849820   5.0220720  26.5224360 103.6428230  13.5422810  25.2863020
 103.0239670  13.9980310  24.7157460 104.4980010  13.6974270  24.8852720
 102.8366480   9.5261800  26.8930060 102.7674760   8.5851740  26.7319190
 103.5986340   9.6163210  27.4652630  95.6459820   2.6276820  27.8269020
  96.3269930   2.8915190  28.4456420  95.3307870   1.7877690  28.1607030
  99.8384390   3.6744180  26.9141610 100.3462610   4.1725150  27.5546630
 100.3697630   2.8979380  26.7380970 104.5091580   8.4262050  22.6794930
 103.8908850   8.8911500  22.1157650 105.0214830   9.1189530  23.0964440
  99.3723340   7.9537920  29.3578530  99.0392720   8.5806840  29.9999600
  99.5490020   8.4799800  28.5780200 107.8857250   1.7683000  26.8254870
 107.1812820   2.0567890  27.4057980 108.2469410   2.5783110  26.4654430
  98.5842440   9.9218720  31.1727710  99.2016440  10.5969800  30.8912160
  97.7235560  10.3306700  31.0815210  93.8774780   9.1118580  20.0534560
  93.5002760   9.6005680  19.3219460  94.1347850   9.7843860  20.6841090
 107.0378770  13.2302260  27.8027530 107.0505930  12.8264550  26.9349790
 106.4853990  14.0049550  27.6988960 108.3324190   9.9518480  22.8917700
 108.2220520   9.0092810  23.0167120 108.3292440  10.3134120  23.7780460
 106.4364210   8.1332100  29.1310140 106.8533000   7.9192210  28.2963600
 107.1604030   8.3904890  29.7018760 103.8744470   5.5783800  22.2480190
 102.9473750   5.5121180  22.4768660 104.0269290   6.5163930  22.1335430
 103.8613550   1.8500800  19.2447350 102.9217220   2.0114760  19.3299810
 104.1796810   2.5686480  18.6983340 107.9041760   7.1404100  22.7515440
 107.2854180   6.8023650  22.1041740 107.8866210   6.4963860  23.4594630
 107.3468320   3.3188640  30.1681250 106.9339500   4.1442350  30.4221240
 106.6144270   2.7333680  29.9757610  99.4801110   6.1048540  25.0299920
  99.0758110   5.3925790  24.5345820  99.5664230   5.7601780  25.9187960
  99.9482810   9.7916100  27.1939130  99.6511100   9.1861570  26.5146910
 100.8982630   9.8293410  27.0828490  98.1929730   2.8791750  28.8098960
  98.7444320   2.9887090  28.0352210  98.7073240   3.2529350  29.5254190
 108.0368420  13.3647970  30.8562230 107.5598980  14.1720160  30.6634840
 107.3530210  12.7126300  31.0088440  99.0401240   9.5297790  33.8446930
  98.1429770   9.7537760  34.0920330  99.0654110   9.6532730  32.8958330
 106.0806460   6.3790910  19.7588190 106.5199740   5.5413340  19.6126010
 106.7934880   7.0120310  19.8452330  97.8672460   6.4011110  32.4204300
  97.7280230   7.2733910  32.7891700  96.9853820   6.0583920  32.2752240
 104.1901840  11.3186980  23.7269430 104.6297750  12.0611310  23.3124820
 104.1288730  11.5613550  24.6508390  99.6652810  12.3432810  34.6289450
  99.6368240  12.7475760  33.7617880  99.5017780  11.4143170  34.4661050
  96.1805740   4.9993520  22.5306570  96.0603340   5.7255610  21.9187840
  95.8706630   4.2296430  22.0534480  93.8191110   8.1708660  28.3375210
  93.8971530   8.3057430  27.3930930  94.4332790   7.4624550  28.5303330
  95.0638740   9.8708850  24.7481390  94.6566820  10.0123440  23.8934990
  95.9551750   9.5869010  24.5452600 104.8817620  14.0200760  31.6548440
 105.3962290  13.9308770  32.4570870 104.0386700  14.3660460  31.9476350
 106.8572020  14.3056100  21.0832440 106.6973160  14.0159040  21.9814270
 106.6918730  13.5296230  20.5477670  99.3360400  14.0854630  22.8604060
  99.1602880  13.1690170  22.6471860  98.4816140  14.4441920  23.1001860
 106.5598150  11.8143660  19.6430440 105.8663310  11.8120950  18.9832720
 107.3021010  11.3902980  19.2124610 106.1248080  13.4406370  23.7178930
 106.5805030  12.6595750  24.0317550 106.4640600  14.1513190  24.2620110
  93.8750630   9.2122830  30.8769670  94.0381670   8.7428190  30.0589040
  94.3403080   8.7046390  31.5418510 107.9343720   2.4306060  32.6462220
 107.0837310   2.1311810  32.9671290 107.7745510   2.6748070  31.7346040
 105.0293430   3.9307810  34.7461010 105.3546840   3.0971560  34.4063240
 105.8173760   4.4536330  34.8939340  98.4383620   3.4662160  23.6411490
  98.2124540   3.2499330  24.5458110  97.6576150   3.8990620  23.2957460
 105.6681380   3.4725530  22.2402140 105.0690270   4.1961330  22.0565760
 106.2160990   3.4102310  21.4578590 100.8782830   4.3647740  34.3071760
 100.7826430   3.4242470  34.1572160 101.7214810   4.5862810  33.9119830
  93.4980650   2.6409990  17.7038340  93.4155320   3.5840750  17.8453330
  93.1463710   2.4984900  16.8250690 104.8601390   4.6994820  28.3656200
 104.1282510   5.2081630  28.7146300 104.4625730   3.8824800  28.0644980
 101.3598930   2.3761100  19.7615450 101.4811750   2.3347580  20.7101270
 100.9747440   3.2385250  19.6062180 100.3720430   4.6862240  19.1598750
  99.8037330   4.2380490  18.5334660 101.0809430   5.0455020  18.6263900
  95.4489610   8.5874260  33.0365480  95.0644400   7.9467930  33.6348440
  95.7601800   9.2910380  33.6060210 101.5986750   5.4350800  28.5174100
 101.9656880   4.9609370  29.2635440 101.4091810   6.3092370  28.8582440
  99.3886120   4.4759440  30.8358310  99.0843190   5.3551420  31.0608670
 100.3432580   4.5359230  30.8715750  97.9167910   8.6820430  21.4325160
  97.1430170   8.1418050  21.2723880  98.6462540   8.1627040  21.0942920
 108.6755890   7.6785790  27.2251550 109.3955010   8.1741080  26.8347660
 108.4737710   7.0003680  26.5805420 104.0574690   7.7494850  33.1120550
 103.9912000   6.8290520  32.8578140 103.4279830   7.8470290  33.8265190
 106.8514220   3.4443400  19.6643100 107.7393840   3.7560630  19.4894440
 106.8219310   2.5715650  19.2723680  97.9605310   8.3500810  25.0703970
  98.4783980   7.5469070  25.0160860  97.5089330   8.2879950  25.9120800
 102.8474810   9.6167090  20.3431270 103.1890510  10.3609320  19.8474590
 102.0187520   9.9298210  20.7056100  95.4449850   5.3162180  31.9829670
  95.0864790   5.9816030  32.5703010  95.1504410   4.4845730  32.3542290
  98.6462970   5.7746420  34.8669220  98.3463110   5.9203600  33.9697040
  99.4174210   5.2151710  34.7742610 103.9891420  10.5715420  32.8624350
 104.0035960   9.6396380  32.6443260 103.2816520  10.6575180  33.5014120
 105.7302220   8.9382930  25.7076780 106.0826040   8.3411060  25.0478150
 104.8464550   8.6127160  25.8785030 101.8165500   9.6980620  23.1147190
 102.5036630  10.2449830  23.4954780 101.0297920  10.2421350  23.1496800
  93.9557900   5.3153440  18.6064270  94.8252750   5.5978240  18.8900190
  93.4648220   6.1289310  18.4913080 101.1192710   6.7026650  22.7272550
 101.5755490   7.5131900  22.9532740 100.7680920   6.3849790  23.5591040
 103.4225320  12.2132990  29.9564850 104.0667540  12.4192370  30.6338270
 103.7854760  11.4521390  29.5035700 104.6957400  10.2165340  28.6742300
 105.3379630   9.5158500  28.7874470 105.2206750  10.9963780  28.4939190
 108.5413120  10.5013960  18.3981440 108.3150700   9.7844400  18.9906080
 108.1509320  10.2526400  17.5603190 106.4695020  11.0160240  31.8778360
 106.8051260  11.6026930  32.5556280 105.5495360  10.8852950  32.1076150
  94.3229150  14.5280820  19.1725900  94.6826790  15.1270160  18.5183170
  94.1821490  15.0740710  19.9460930 108.1229370   8.4185900  20.0595600
 107.8351070   8.8798590  20.8473480 108.9181540   7.9583670  20.3279820
  94.3071010  12.7935680  33.6468300  94.4162130  11.8530420  33.5063690
  93.6551570  13.0590430  32.9982030 102.2983600  11.0651570  35.0466420
 101.9780470  10.3460810  35.5912110 101.6241960  11.7406640  35.1202480
 100.3397770  11.9112020  19.9899570 100.3307870  12.6441710  19.3744080
  99.4196130  11.6643600  20.0826530  95.9404410   7.1326910  20.7346330
  95.3332360   7.8725810  20.7441630  96.4153760   7.2226270  19.9084530
 103.3257370  11.9740260  18.6524760 103.4269350  11.7704250  17.7226740
 102.4259110  11.7198540  18.8572540 100.8483260   2.5320620  22.6348660
 100.1399410   3.0006960  23.0762270 101.1327740   1.8742630  23.2693850
 102.4739190   3.9517320  30.6341190 102.9724440   4.4263140  31.2993040
 102.6162140   3.0280840  30.8411220 101.9675480  14.4926580  23.3472430
 102.2216980  14.4547970  22.4251800 101.0187960  14.3659910  23.3400680
 107.9728060   5.4118460  24.9230940 107.0318200   5.4268690  25.0978630
 108.2872130   4.6254420  25.3691240  97.9509700   7.0938060  18.4834900
  98.7172970   6.9819420  19.0460330  98.0284390   6.3976030  17.8311670
  96.6456460   4.5263130  19.1667790  96.7260050   3.5790640  19.2785190
  97.5376210   4.8570010  19.2728450  97.4471170  14.6758520  26.2702330
  98.1833650  14.1273980  26.5410900  97.8312090  15.5414530  26.1308320
  94.3316650  10.7432090  22.1443840  93.4056430  10.9853230  22.1349250
  94.7973080  11.5706350  22.0228590  96.4529450  13.8604590  35.4587910
  97.2542180  14.1816640  35.8723310  95.9381270  13.5000170  36.1807820
 100.5573480  13.8488830  18.0927900 101.3502090  14.1377660  17.6409690
 100.0377830  13.4181000  17.4140380 105.2894080   9.9684460  35.4063320
 104.6832240   9.9916060  34.6659070 104.9848190   9.2367500  35.9430570
 106.7194450  13.6964750  34.0172730 107.6716200  13.6122770  33.9672970
 106.5722670  14.3606460  34.6906520  94.1727260   6.3478050  34.4023960
  94.6766280   5.7685330  34.9740190  93.4334680   6.6318280  34.9400330
 101.0750880   9.0692240  17.9570250 100.9701520   8.4544590  18.6831630
 100.9075100   8.5458130  17.1733260 101.2265200   7.7549040  33.9359480
 100.4610870   8.3234040  33.8514150 101.4081160   7.4625250  33.0427710
 104.3153610   8.1312270  18.5612240 103.7663710   8.5781570  19.2054980
 104.9372870   7.6261520  19.0849910 108.3688550   9.4854370  34.4934500
 109.1098020   9.8230130  33.9901960 107.6061230   9.6546430  33.9404270
  96.2050340   4.4907640  35.2974030  96.2455680   4.1921510  36.2059260
  97.0595840   4.8915250  35.1381550  99.9828730   7.0903190  20.4577540
 100.4045150   6.9243060  21.3008930 100.1079570   6.2803420  19.9632680
  98.1456150   3.0699740  33.2648520  97.6152610   2.5790690  32.6371860
  98.8144220   3.4983940  32.7306450 102.4956370   6.1140800  17.7054640
 103.0162030   5.3989820  17.3395790 103.1424770   6.7526670  18.0055150
 107.0434210   7.5369200  33.0289710 107.4575230   7.6914280  33.8780130
 106.1085210   7.6624420  33.1915490 107.5156380   4.8765360  35.0328860
 108.0977150   4.1217680  34.9449340 107.6918150   5.4072800  34.2560340
 101.8049440   7.4889680  30.9985640 102.2237550   8.3322410  30.8261880
 100.8858070   7.6261720  30.7692420 104.1413340   5.2205860  32.3823480
 104.2609550   4.6247000  33.1218320 105.0007340   5.2575550  31.9624780
 106.4801240   5.7743050  30.9585990 105.9536460   6.2985670  30.3551130
 106.8232580   6.4070440  31.5895720  98.8787630   3.1636420  17.4035700
  98.6776690   2.3003780  17.7649040  98.7079680   3.0769780  16.4657300
  99.6556860  13.7942690  32.1143370  99.1177950  14.5188750  31.7952070
  99.9090820  13.3173030  31.3240710 102.5119070  15.0293900  32.3730020
 102.4377770  15.9329040  32.6802390 101.6097910  14.7105800  32.3452090
 103.0604400  14.1952410  19.9956380 103.9555190  14.5337380  20.0175140
 103.0922030  13.4731820  19.3680660  96.7000560   9.5679460  18.2243380
  97.1375430  10.1109130  18.8800960  97.1848290   8.7426410  18.2339720
  93.9146360  12.3568490  25.6763640  94.2449370  11.4889550  25.4442280
  94.3437360  12.5627010  26.5068600  98.5108280  10.6877500  23.3365610
  98.2103820  10.5642470  24.2369520  98.4045770   9.8286090  22.9281340
  94.4036570  13.2239080  28.4145270  93.9667560  13.4039880  29.2469420
  94.9714250  13.9813700  28.2726990  94.2361000   5.7359310  24.7734150
  93.5809840   5.4670950  24.1293850  95.0738950   5.6263790  24.3236130
 108.7250390   9.4508060  30.7998740 107.9110230   9.8805220  31.0624530
 109.1324590  10.0626470  30.1867790  95.2736930   6.1211880  29.3137490
  95.6409970   6.0339280  30.1933510  94.7047750   5.3578430  29.2144350
  94.8252930   3.0320970  33.2195910  93.9308980   2.9987730  33.5589620
  95.3650480   3.2307760  33.9847160  93.4499080   2.9458240  20.7159480
  92.5463160   3.2088440  20.5411140  93.9339700   3.2169410  19.9359440
 108.7826440  14.2026660  24.3267010 109.3785510  13.8811230  23.6501430
 109.0404590  13.7298480  25.1180280  96.6889010  10.6344570  34.4757640
  96.6458640  10.2637480  35.3572100  96.8200020  11.5722140  34.6159460
 100.3895040  12.1904160  30.0767360 100.1486400  12.4578720  29.1897880
 101.3297680  12.3609890  30.1318220  96.5277040  13.5806820  31.5955420
  95.9337360  13.4491520  32.3345460  96.5200880  12.7444960  31.1297520
 109.3338650  14.8521960  28.1564740 108.8741620  15.6037770  27.7822760
 108.7051110  14.1328430  28.0979540  96.1589270  10.9465200  30.5463460
  95.4323330  10.3270490  30.4789410  96.2198420  11.3405810  29.6761540
  99.7634370  13.1610200  27.3312870 100.2799390  12.5497560  26.8061130
 100.4131750  13.6638980  27.8223880 102.5029870  14.0518690  28.1581850
 102.7907680  13.7972990  27.2814860 103.0153090  13.4996050  28.7487420
  94.4419270  14.2639590  23.7560220  94.2741310  13.6310270  24.4542110
  93.5753780  14.4698990  23.4054410  96.0481970  12.9572820  21.2010360
  95.5229590  13.3380850  20.4972320  95.9726550  13.5823590  21.9220070
 102.5702230  14.9734790  35.5250050 103.4969540  14.7379060  35.5686010
 102.5552660  15.8006790  35.0436080  98.6474940  14.9055200  20.0759610
  99.3793760  14.6214480  19.5283500  98.9068610  14.6668480  20.9658990
  97.8089730  11.0219930  20.0805940  97.1798610  11.4905030  20.6291770
  97.9237560  10.1769150  20.5152130 105.2639450   5.0725590   6.2307140
 105.1833500   4.1580200   5.9598850 104.8503870   5.5692660   5.5246850
 103.3957490   6.8504610   8.1116410 102.6199590   6.3705050   8.4014980
 104.0470420   6.1710260   7.9372570  97.4123320   7.1624420   8.9892170
  96.5808200   6.9073130   9.3888680  98.0204300   7.2335190   9.7250090
 107.4164920  11.2564800   6.8915540 106.9546450  10.4852040   7.2202710
 108.2290470  11.2830870   7.3967990  97.3924580  11.1964510   9.1850190
  97.6952620  10.3062250   9.0060410  98.1368170  11.7534730   8.9572440
  95.8215270   2.1226310   2.7734560  94.9331970   2.4642280   2.6714440
  96.1056460   1.9226630   1.8815390  93.7848280   4.7231960   8.6574260
  94.3564390   3.9554160   8.6577900  93.7849820   5.0220720   7.7480870
 103.6428230  13.5422810   6.5119530 103.0239670  13.9980310   5.9413970
 104.4980010  13.6974270   6.1109230 102.8366480   9.5261800   8.1186570
 102.7674760   8.5851740   7.9575700 103.5986340   9.6163210   8.6909140
  95.6459820   2.6276820   9.0525530  96.3269930   2.8915190   9.6712930
  95.3307870   1.7877690   9.3863540  99.8384390   3.6744180   8.1398120
 100.3462610   4.1725150   8.7803140 100.3697630   2.8979380   7.9637480
 104.5091580   8.4262050   3.9051440 103.8908850   8.8911500   3.3414160
 105.0214830   9.1189530   4.3220950  99.3723340   7.9537920  10.5835040
  99.0392720   8.5806840  11.2256110  99.5490020   8.4799800   9.8036710
 107.8857250   1.7683000   8.0511380 107.1812820   2.0567890   8.6314490
 108.2469410   2.5783110   7.6910940  98.5842440   9.9218720  12.3984220
  99.2016440  10.5969800  12.1168670  97.7235560  10.3306700  12.3071720
 107.0378770  13.2302260   9.0284040 107.0505930  12.8264550   8.1606300
 106.4853990  14.0049550   8.9245470 108.3324190   9.9518480   4.1174210
 108.2220520   9.0092810   4.2423630 108.3292440  10.3134120   5.0036970
 106.4364210   8.1332100  10.3566650 106.8533000   7.9192210   9.5220110
 107.1604030   8.3904890  10.9275270 103.8744470   5.5783800   3.4736700
 102.9473750   5.5121180   3.7025170 104.0269290   6.5163930   3.3591940
 107.9041760   7.1404100   3.9771950 107.2854180   6.8023650   3.3298250
 107.8866210   6.4963860   4.6851140 107.3468320   3.3188640  11.3937760
 106.9339500   4.1442350  11.6477750 106.6144270   2.7333680  11.2014120
  99.4801110   6.1048540   6.2556430  99.0758110   5.3925790   5.7602330
  99.5664230   5.7601780   7.1444470  99.9482810   9.7916100   8.4195640
  99.6511100   9.1861570   7.7403420 100.8982630   9.8293410   8.3085000
  98.1929730   2.8791750  10.0355470  98.7444320   2.9887090   9.2608720
  98.7073240   3.2529350  10.7510700 108.0368420  13.3647970  12.0818740
 107.5598980  14.1720160  11.8891350 107.3530210  12.7126300  12.2344950
  99.0401240   9.5297790  15.0703440  98.1429770   9.7537760  15.3176840
  99.0654110   9.6532730  14.1214840  97.8672460   6.4011110  13.6460810
  97.7280230   7.2733910  14.0148210  96.9853820   6.0583920  13.5008750
 104.1901840  11.3186980   4.9525940 104.6297750  12.0611310   4.5381330
 104.1288730  11.5613550   5.8764900  99.6652810  12.3432810  15.8545960
  99.6368240  12.7475760  14.9874390  99.5017780  11.4143170  15.6917560
  96.1805740   4.9993520   3.7563080  96.0603340   5.7255610   3.1444350
  95.8706630   4.2296430   3.2790990  93.8191110   8.1708660   9.5631720
  93.8971530   8.3057430   8.6187440  94.4332790   7.4624550   9.7559840
  95.0638740   9.8708850   5.9737900  94.6566820  10.0123440   5.1191500
  95.9551750   9.5869010   5.7709110 104.8817620  14.0200760  12.8804950
 105.3962290  13.9308770  13.6827380 104.0386700  14.3660460  13.1732860
 106.8572020  14.3056100   2.3088950 106.6973160  14.0159040   3.2070780
 106.6918730  13.5296230   1.7734180  99.3360400  14.0854630   4.0860570
  99.1602880  13.1690170   3.8728370  98.4816140  14.4441920   4.3258370
 106.1248080  13.4406370   4.9435440 106.5805030  12.6595750   5.2574060
 106.4640600  14.1513190   5.4876620  93.8750630   9.2122830  12.1026180
  94.0381670   8.7428190  11.2845550  94.3403080   8.7046390  12.7675020
 107.9343720   2.4306060  13.8718730 107.0837310   2.1311810  14.1927800
 107.7745510   2.6748070  12.9602550 105.0293430   3.9307810  15.9717520
 105.3546840   3.0971560  15.6319750 105.8173760   4.4536330  16.1195850
  98.4383620   3.4662160   4.8668000  98.2124540   3.2499330   5.7714620
  97.6576150   3.8990620   4.5213970 105.6681380   3.4725530   3.4658650
 105.0690270   4.1961330   3.2822270 106.2160990   3.4102310   2.6835100
 100.8782830   4.3647740  15.5328270 100.7826430   3.4242470  15.3828670
 101.7214810   4.5862810  15.1376340 104.8601390   4.6994820   9.5912710
 104.1282510   5.2081630   9.9402810 104.4625730   3.8824800   9.2901490
  95.4489610   8.5874260  14.2621990  95.0644400   7.9467930  14.8604950
  95.7601800   9.2910380  14.8316720 101.5986750   5.4350800   9.7430610
 101.9656880   4.9609370  10.4891950 101.4091810   6.3092370  10.0838950
  99.3886120   4.4759440  12.0614820  99.0843190   5.3551420  12.2865180
 100.3432580   4.5359230  12.0972260  97.9167910   8.6820430   2.6581670
  97.1430170   8.1418050   2.4980390  98.6462540   8.1627040   2.3199430
 108.6755890   7.6785790   8.4508060 109.3955010   8.1741080   8.0604170
 108.4737710   7.0003680   7.8061930 104.0574690   7.7494850  14.3377060
 103.9912000   6.8290520  14.0834650 103.4279830   7.8470290  15.0521700
  97.9605310   8.3500810   6.2960480  98.4783980   7.5469070   6.2417370
  97.5089330   8.2879950   7.1377310  95.4449850   5.3162180  13.2086180
  95.0864790   5.9816030  13.7959520  95.1504410   4.4845730  13.5798800
  98.6462970   5.7746420  16.0925730  98.3463110   5.9203600  15.1953550
  99.4174210   5.2151710  15.9999120 103.9891420  10.5715420  14.0880860
 104.0035960   9.6396380  13.8699770 103.2816520  10.6575180  14.7270630
 105.7302220   8.9382930   6.9333290 106.0826040   8.3411060   6.2734660
 104.8464550   8.6127160   7.1041540 101.8165500   9.6980620   4.3403700
 102.5036630  10.2449830   4.7211290 101.0297920  10.2421350   4.3753310
 101.1192710   6.7026650   3.9529060 101.5755490   7.5131900   4.1789250
 100.7680920   6.3849790   4.7847550 103.4225320  12.2132990  11.1821360
 104.0667540  12.4192370  11.8594780 103.7854760  11.4521390  10.7292210
 104.6957400  10.2165340   9.8998810 105.3379630   9.5158500  10.0130980
 105.2206750  10.9963780   9.7195700 106.4695020  11.0160240  13.1034870
 106.8051260  11.6026930  13.7812790 105.5495360  10.8852950  13.3332660
  94.3071010  12.7935680  14.8724810  94.4162130  11.8530420  14.7320200
  93.6551570  13.0590430  14.2238540 102.2983600  11.0651570  16.2722930
 101.9780470  10.3460810  16.8168620 101.6241960  11.7406640  16.3458990
 100.8483260   2.5320620   3.8605170 100.1399410   3.0006960   4.3018780
 101.1327740   1.8742630   4.4950360 102.4739190   3.9517320  11.8597700
 102.9724440   4.4263140  12.5249550 102.6162140   3.0280840  12.0667730
 101.9675480  14.4926580   4.5728940 102.2216980  14.4547970   3.6508310
 101.0187960  14.3659910   4.5657190 107.9728060   5.4118460   6.1487450
 107.0318200   5.4268690   6.3235140 108.2872130   4.6254420   6.5947750
  97.4471170  14.6758520   7.4958840  98.1833650  14.1273980   7.7667410
  97.8312090  15.5414530   7.3564830  94.3316650  10.7432090   3.3700350
  93.4056430  10.9853230   3.3605760  94.7973080  11.5706350   3.2485100
  96.4529450  13.8604590  16.6844420  97.2542180  14.1816640  17.0979820
  95.9381270  13.5000170  17.4064330 105.2894080   9.9684460  16.6319830
 104.6832240   9.9916060  15.8915580 104.9848190   9.2367500  17.1687080
 106.7194450  13.6964750  15.2429240 107.6716200  13.6122770  15.1929480
 106.5722670  14.3606460  15.9163030  94.1727260   6.3478050  15.6280470
  94.6766280   5.7685330  16.1996700  93.4334680   6.6318280  16.1656840
 101.2265200   7.7549040  15.1615990 100.4610870   8.3234040  15.0770660
 101.4081160   7.4625250  14.2684220 108.3688550   9.4854370  15.7191010
 109.1098020   9.8230130  15.2158470 107.6061230   9.6546430  15.1660780
  96.2050340   4.4907640  16.5230540  96.2455680   4.1921510  17.4315770
  97.0595840   4.8915250  16.3638060  98.1456150   3.0699740  14.4905030
  97.6152610   2.5790690  13.8628370  98.8144220   3.4983940  13.9562960
 107.0434210   7.5369200  14.2546220 107.4575230   7.6914280  15.1036640
 106.1085210   7.6624420  14.4172000 107.5156380   4.8765360  16.2585370
 108.0977150   4.1217680  16.1705850 107.6918150   5.4072800  15.4816850
 101.8049440   7.4889680  12.2242150 102.2237550   8.3322410  12.0518390
 100.8858070   7.6261720  11.9948930 104.1413340   5.2205860  13.6079990
 104.2609550   4.6247000  14.3474830 105.0007340   5.2575550  13.1881290
 106.4801240   5.7743050  12.1842500 105.9536460   6.2985670  11.5807640
 106.8232580   6.4070440  12.8152230  99.6556860  13.7942690  13.3399880
  99.1177950  14.5188750  13.0208580  99.9090820  13.3173030  12.5497220
 102.5119070  15.0293900  13.5986530 102.4377770  15.9329040  13.9058900
 101.6097910  14.7105800  13.5708600  93.9146360  12.3568490   6.9020150
  94.2449370  11.4889550   6.6698790  94.3437360  12.5627010   7.7325110
  98.5108280  10.6877500   4.5622120  98.2103820  10.5642470   5.4626030
  98.4045770   9.8286090   4.1537850  94.4036570  13.2239080   9.6401780
  93.9667560  13.4039880  10.4725930  94.9714250  13.9813700   9.4983500
  94.2361000   5.7359310   5.9990660  93.5809840   5.4670950   5.3550360
  95.0738950   5.6263790   5.5492640 108.7250390   9.4508060  12.0255250
 107.9110230   9.8805220  12.2881040 109.1324590  10.0626470  11.4124300
  95.2736930   6.1211880  10.5394000  95.6409970   6.0339280  11.4190020
  94.7047750   5.3578430  10.4400860  94.8252930   3.0320970  14.4452420
  93.9308980   2.9987730  14.7846130  95.3650480   3.2307760  15.2103670
 108.7826440  14.2026660   5.5523520 109.3785510  13.8811230   4.8757940
 109.0404590  13.7298480   6.3436790  96.6889010  10.6344570  15.7014150
  96.6458640  10.2637480  16.5828610  96.8200020  11.5722140  15.8415970
 100.3895040  12.1904160  11.3023870 100.1486400  12.4578720  10.4154390
 101.3297680  12.3609890  11.3574730  96.5277040  13.5806820  12.8211930
  95.9337360  13.4491520  13.5601970  96.5200880  12.7444960  12.3554030
 109.3338650  14.8521960   9.3821250 108.8741620  15.6037770   9.0079270
 108.7051110  14.1328430   9.3236050  96.1589270  10.9465200  11.7719970
  95.4323330  10.3270490  11.7045920  96.2198420  11.3405810  10.9018050
  99.7634370  13.1610200   8.5569380 100.2799390  12.5497560   8.0317640
 100.4131750  13.6638980   9.0480390 102.5029870  14.0518690   9.3838360
 102.7907680  13.7972990   8.5071370 103.0153090  13.4996050   9.9743930
  94.4419270  14.2639590   4.9816730  94.2741310  13.6310270   5.6798620
  93.5753780  14.4698990   4.6310920  96.0481970  12.9572820   2.4266870
  95.5229590  13.3380850   1.7228830  95.9726550  13.5823590   3.1476580
 102.5702230  14.9734790  16.7506560 103.4969540  14.7379060  16.7942520
 102.5552660  15.8006790  16.2692590  86.4895960  80.1699550  81.3281100
  86.4090010  79.2554160  81.0572810  86.0760380  80.6666620  80.6220810
  84.6214000  81.9478570  83.2090370  83.8456100  81.4679010  83.4988940
  85.2726930  81.2684220  83.0346530  78.6379830  82.2598380  84.0866130
  77.8064710  82.0047090  84.4862640  79.2460810  82.3309150  84.8224050
  77.0471780  77.2200270  77.8708520  76.1588480  77.5616240  77.7688400
  77.3312970  77.0200590  76.9789350  75.0104790  79.8205920  83.7548220
  75.5820900  79.0528120  83.7551860  75.0106330  80.1194680  82.8454830
  84.0622990  84.6235760  83.2160530  83.9931270  83.6825700  83.0549660
  84.8242850  84.7137170  83.7883100  76.2529660  75.2290280  85.5417150
  76.0732500  74.3316030  85.8219910  75.8509740  75.7762150  86.2164100
  85.0928160  77.4306140  83.4429460  85.4692980  76.5578020  83.3303130
  84.9947670  77.7664840  82.5519900  79.2233170  75.8031770  78.9046900
  79.3299920  76.7035500  79.2115660  78.3125530  75.7549740  78.6141550
  88.8752280  74.9256580  80.3757800  89.6961900  74.4353150  80.4183280
  88.9086360  75.5154240  81.1289640  76.8716330  77.7250780  84.1499490
  77.5526440  77.9889150  84.7686890  76.5564380  76.8851650  84.4837500
  81.0640900  78.7718140  83.2372080  81.5719120  79.2699110  83.8777100
  81.5954140  77.9953340  83.0611440  93.1651830  76.9423330  86.9401430
  92.4604000  77.3305040  86.4216540  93.4309750  77.6373620  87.5422360
  79.3477000  73.4116700  87.5035500  79.3495440  73.9289090  86.6981400
  78.5181310  72.9346880  87.4805430  85.7348090  83.5236010  79.0025400
  85.1165360  83.9885460  78.4388120  86.2471340  84.2163490  79.4194910
  80.5979850  83.0511880  85.6809000  80.2649230  83.6780800  86.3230070
  80.7746530  83.5773760  84.9010670  89.1113760  76.8656960  83.1485340
  88.4069330  77.1541850  83.7288450  89.4725920  77.6757070  82.7884900
  79.0292330  75.1226660  85.5105950  79.3709140  75.9668710  85.2159820
  78.0908140  75.2710400  85.6271290  75.1031290  84.2092540  76.3765030
  74.7259270  84.6979640  75.6449930  75.3604360  84.8817820  77.0071560
  92.1800680  76.3111750  83.5394550  91.2325590  76.3450730  83.6709980
  92.5050670  77.1250700  83.9243910  82.7120220  72.6108930  81.8350540
  83.0195200  72.0555820  81.1186040  81.7820920  72.7453390  81.6523530
  87.6620720  83.2306060  85.4540610  88.0789510  83.0166170  84.6194070
  88.3860540  83.4878850  86.0249230  85.1000980  80.6757760  78.5710660
  84.1730260  80.6095140  78.7999130  85.2525800  81.6137890  78.4565900
  85.0870060  76.9474760  75.5677820  84.1473730  77.1088720  75.6530280
  85.4053320  77.6660440  75.0213810  91.6082820  81.6293280  85.5456850
  90.7801450  81.6986370  85.0706980  92.2033300  82.2147590  85.0772680
  89.1298270  82.2378060  79.0745910  88.5110690  81.8997610  78.4272210
  89.1122720  81.5937820  79.7825100  88.5724830  78.4162600  86.4911720
  88.1596010  79.2416310  86.7451710  87.8400780  77.8307640  86.2988080
  80.7057620  81.2022500  81.3530390  80.3014620  80.4899750  80.8576290
  80.7920740  80.8575740  82.2418430  81.1739320  84.8890060  83.5169600
  80.8767610  84.2835530  82.8377380  82.1239140  84.9267370  83.4058960
  79.4186240  77.9765710  85.1329430  79.9700830  78.0861050  84.3582680
  79.9329750  78.3503310  85.8484660  87.3062970  81.4764870  76.0818660
  87.7456250  80.6387300  75.9356480  88.0191390  82.1094270  76.1682800
  79.0928970  81.4985070  88.7434770  78.9536740  82.3707870  89.1122170
  78.2110330  81.1557880  88.5982710  90.8880110  72.7307680  74.3959700
  90.5752770  72.8234510  75.2958770  91.6492580  73.3088710  74.3457130
  77.4062250  80.0967480  78.8537040  77.2859850  80.8229570  78.2418310
  77.0963140  79.3270390  78.3764950  75.0447620  83.2682620  84.6605680
  75.1228040  83.4031390  83.7161400  75.6589300  82.5598510  84.8533800
  75.1007140  84.3096790  87.2000140  75.2638180  83.8402150  86.3819510
  75.5659590  83.8020350  87.8648980  79.8725910  73.4402550  82.2360710
  79.4294060  74.2212090  81.9045230  80.4310900  73.7632440  82.9431650
  84.1595720  76.3071070  87.8396030  83.6975090  76.5154090  88.6515970
  83.7573830  75.4930420  87.5366700  82.9884730  73.0613250  77.1166540
  82.3638910  73.0573120  77.8419850  82.9014850  72.1944210  76.7202510
  81.9101810  73.9849880  84.0950310  82.2074140  74.8912710  84.0142330
  82.4587370  73.4968660  83.4809880  79.6640130  78.5636120  79.9641960
  79.4381050  78.3473290  80.8688580  78.8832660  78.9964580  79.6187930
  86.8937890  78.5699490  78.5632610  86.2946780  79.2935290  78.3796230
  87.4417500  78.5076270  77.7809060  85.5002760  77.2063030  80.5935890
  85.8932330  77.5235230  79.7804580  85.8619610  76.3274910  80.7080410
  77.2349880  75.8735370  88.7836010  76.8413270  76.7210580  88.9908790
  76.5468280  75.2361740  88.9744650  74.5366930  73.7963830  82.8166090
  74.2479980  74.3666690  83.5291070  75.2812690  73.3168280  83.1797320
  74.7237160  77.7383950  74.0268810  74.6411830  78.6814710  74.1683800
  74.3720220  77.5958860  73.1481160  86.0857900  79.7968780  84.6886670
  85.3539020  80.3055590  85.0376770  85.6882240  78.9798760  84.3875450
  82.5235290  76.4722980  83.0939160  82.5271350  76.0312930  82.2443700
  83.4186410  76.7940310  83.2010980  78.3737670  76.3549470  82.0533370
  78.0337720  76.8324700  82.8100420  77.6114990  75.9014590  81.6934470
  82.5855440  77.4735060  76.0845920  82.7068260  77.4321540  77.0331740
  82.2003950  78.3359210  75.9292650  86.5483810  75.2502460  84.1009610
  86.5656550  75.7011110  84.9451460  86.2999390  74.3508100  84.3143050
  81.5976940  79.7836200  75.4829220  81.0293840  79.3354450  74.8565130
  82.3065940  80.1428980  74.9494370  82.8243260  80.5324760  84.8404570
  83.1913390  80.0583330  85.5865910  82.6348320  81.4066330  85.1812910
  75.6883750  75.2768450  80.9698040  75.4030670  74.9124120  81.8076660
  75.6262610  74.5448910  80.3561180  80.6142630  79.5733400  87.1588780
  80.3099700  80.4525380  87.3839140  81.5689090  79.6333190  87.1946220
  79.1424420  83.7794390  77.7555630  78.3686680  83.2392010  77.5954350
  79.8719050  83.2601000  77.4173390  89.9012400  82.7759750  83.5482020
  90.6211520  83.2715040  83.1578130  89.6994220  82.0977640  82.9035890
  85.3622340  74.1697710  77.6911410  84.5486950  73.6710880  77.6156720
  85.1684290  75.0095960  77.2747760  88.0770730  78.5417360  75.9873570
  88.9650350  78.8534590  75.8124910  88.0475820  77.6689610  75.5954150
  79.1861820  83.4474770  81.3934440  79.7040490  82.6443030  81.3391330
  78.7345840  83.3853910  82.2351270  76.6706360  80.4136140  88.3060140
  76.3121300  81.0789990  88.8933480  76.3760920  79.5819690  88.6772760
  90.3485000  79.8529200  75.4553430  90.2648720  80.2843420  74.6049870
  91.0679190  80.3127550  75.8880250  91.4259140  82.3096720  88.5323400
  90.7007330  82.9025500  88.3352790  91.9534600  82.3020260  87.7336770
  86.9558730  84.0356890  82.0307250  87.3082550  83.4385020  81.3708620
  86.0721060  83.7101120  82.2015500  75.1814410  80.4127400  74.9294740
  76.0509260  80.6952200  75.2130660  74.6904730  81.2263270  74.8143550
  82.3449220  81.8000610  79.0503020  82.8012000  82.6105860  79.2763210
  81.9937430  81.4823750  79.8821510  78.2461000  72.1438260  79.5225540
  78.1175630  72.1356160  80.4710460  77.4223020  72.4821350  79.1716550
  89.3485880  83.5159860  76.3826070  89.0607580  83.9772550  77.1703950
  90.1438050  83.0557630  76.6510290  77.1660920  82.2300870  77.0576800
  76.5588870  82.9699770  77.0672100  77.6410270  82.3200230  76.2315000
  86.7393710  76.3951690  86.7333690  87.1074530  75.5746900  87.0613260
  85.8791910  76.4553580  87.1489340  90.1055740  75.3508630  77.5421250
  89.4768900  75.4554300  76.8279480  89.6107660  75.5705410  78.3315130
  82.0739770  77.6294580  78.9579130  81.3655920  78.0980920  79.3992740
  82.3584250  76.9716590  79.5924320  83.6995700  79.0491280  86.9571660
  84.1980950  79.5237100  87.6223510  83.8418650  78.1254800  87.1641690
  86.1055200  74.3545240  80.3974920  85.9822980  74.3731370  79.4484430
  87.0539760  74.4024180  80.5173320  80.2774790  75.9379660  76.3329840
  81.1265320  76.3749810  76.2670030  79.9106060  76.2499920  77.1601900
  90.9062560  75.2659240  87.8000050  90.4036160  76.0064640  88.1393860
  91.7219220  75.6543240  87.4836840  89.1984570  80.5092420  81.2461410
  88.2574710  80.5242650  81.4209100  89.5128640  79.7228380  81.6921710
  79.1766210  82.1912020  74.8065370  79.9429480  82.0793380  75.3690800
  79.2540900  81.4949990  74.1542140  77.8712970  79.6237090  75.4898260
  77.9516560  78.6764600  75.6015660  78.7632720  79.9543970  75.5958920
  82.3007390  84.1666200  74.2800720  82.1958030  83.5518550  75.0062100
  82.1331610  83.6432090  73.4963730  85.5410120  83.2286230  74.8842710
  84.9920220  83.6755530  75.5285450  86.1629380  82.7235480  75.4080380
  81.2085240  82.1877150  76.7808010  81.6301660  82.0217020  77.6239400
  81.3336080  81.3777380  76.2863150  83.7212880  81.2114760  74.0285110
  84.2418540  80.4963780  73.6626260  84.3681280  81.8500630  74.3285620
  82.6246400  73.6909310  86.7003670  82.1763700  73.7133570  85.8549220
  81.9911600  73.2928330  87.2973970  83.0305950  82.5863640  87.3216110
  83.4494060  83.4296370  87.1492350  82.1114580  82.7235680  87.0922890
  87.7057750  80.8717010  87.2816460  87.1792970  81.3959630  86.6781600
  88.0489090  81.5044400  87.9126190  80.1044140  78.2610380  73.7266170
  79.9033200  77.3977740  74.0879510  79.9336190  78.1743740  72.7887770
  87.5832450  73.0718610  76.2553050  87.8634740  72.2286510  76.6112470
  86.8098180  73.3041720  76.7691800  78.9026940  75.3611000  73.7144050
  79.2052840  75.3678430  72.8063200  79.6421530  75.0108860  74.2111710
  82.1211870  74.3045620  74.7000250  81.7733870  73.6269610  74.1202700
  82.3224640  73.8435130  75.5143640  91.9613170  82.3095340  76.8656960
  92.7232080  82.8791990  76.9716650  91.9767540  81.7422540  77.6365270
  75.4617510  80.8333270  81.0964620  74.8066350  80.5644910  80.4524320
  76.2995460  80.7237750  80.6466600  92.9673140  83.1645440  81.7098890
  93.3381970  82.3812760  81.3034860  93.6075070  83.8534540  81.5316190
  92.0132340  82.6029710  74.0229480  92.2881180  83.5108590  73.8948700
  91.8243080  82.5392240  74.9591470  88.4107950  75.6274560  75.3183110
  88.8292830  75.4405540  74.4779770  88.1044010  74.7753610  75.6286040
  91.9097680  80.5398700  79.0158910  91.5341280  79.7726630  78.5840200
  91.1800800  80.9221400  79.5033840  76.4993440  81.2185840  85.6367960
  76.8666480  81.1313240  86.5163980  75.9304260  80.4552390  85.5374820
  91.2997300  79.6870220  88.6498430  91.0683390  79.4582970  87.7496380
  91.5601850  80.6069770  88.6043320  74.6755590  78.0432200  77.0389950
  73.7719670  78.3062400  76.8641610  75.1596210  78.3143370  76.2589910
  91.1848640  78.7656190  82.3166150  91.7086120  78.2718840  81.6856320
  91.7708060  78.9006550  83.0613720  91.3638360  78.8496060  85.8385700
  90.4141070  78.8159600  85.9530690  91.5451370  79.7596170  85.6035470
  77.2182800  77.0997740  74.9484330  77.9274500  76.6780960  74.4631610
  76.5022740  77.1672970  74.3167680  76.8656960  73.1537070  73.9886980
  77.5885090  73.6946010  74.3068200  77.1381480  72.8800490  73.1128520
  90.6748610  78.0229540  78.2558560  91.1707730  77.7900410  79.0407440
  90.4764680  77.1841380  77.8396200  76.5549150  72.4043260  83.8909600
  77.2025340  71.8540640  83.4504760  76.9750990  72.6586410  84.7125410
  92.1035770  76.6590490  80.7896240  91.9935050  76.5046530  81.7278510
  92.8643360  76.1311430  80.5471650  90.4501490  72.5984620  87.2479240
  91.0873710  73.2118760  87.6138430  90.5976380  72.6345280  86.3028470
  92.9926040  74.4898410  74.0302380  93.9175350  74.3579590  73.8220670
  92.9701830  74.5691230  74.9838830  93.0664530  75.2609070  76.6559090
  92.2716030  75.1954190  77.1852000  93.2707810  76.1959710  76.6444440
  76.3081150  72.5598930  86.6334920  75.9595970  73.0162750  87.3993100
  75.9768850  71.6656060  86.7157350  87.1988570  71.9713010  86.1215920
  86.3248410  72.3048120  85.9188850  87.0899320  71.4986190  86.9467790
  88.1060550  74.1783880  87.5057640  87.7773910  73.3635640  87.1259370
  89.0542850  74.1353690  87.3823330  84.9463390  72.8882850  85.0608830
  84.1635180  73.3628350  85.3405590  84.6526320  71.9837680  84.9522010
  89.4984460  73.5905950  83.1057920  89.9392550  73.5351050  82.2579520
  89.2292050  74.5063960  83.1768100  91.3623030  73.2221190  81.1166740
  91.3011430  72.2782410  80.9697760  92.1415060  73.3301280  81.6620200
  76.2903800  73.1930330  77.5822550  77.0483160  73.3059210  77.0086580
  75.8280970  74.0299530  77.5365980  82.8317610  75.3069600  80.5724860
  82.0192120  74.9326490  80.2320740  83.3359250  74.5514680  80.8746050
  87.3342590  71.9712050  81.8107930  87.9371960  72.5432260  82.2856450
  86.5935580  72.5351490  81.5881830  90.4777190  72.3733610  77.0848210
  90.6727820  73.2717060  77.3515640  89.6907060  72.1420690  77.5781160
  78.6628950  73.7194380  76.1224520  79.1921710  72.9324180  75.9932470
  79.2957270  74.3985570  76.3560050  80.8566790  73.4569520  79.1769910
  80.2269530  72.7556830  79.3440040  80.3171930  74.2173650  78.9603070
  86.4895960  80.1699550  62.5537610  86.4090010  79.2554160  62.2829320
  86.0760380  80.6666620  61.8477320  84.6214000  81.9478570  64.4346880
  83.8456100  81.4679010  64.7245450  85.2726930  81.2684220  64.2603040
  78.6379830  82.2598380  65.3122640  77.8064710  82.0047090  65.7119150
  79.2460810  82.3309150  66.0480560  77.0471780  77.2200270  59.0965030
  76.1588480  77.5616240  58.9944910  77.3312970  77.0200590  58.2045860
  75.0104790  79.8205920  64.9804730  75.5820900  79.0528120  64.9808370
  75.0106330  80.1194680  64.0711340  84.0622990  84.6235760  64.4417040
  83.9931270  83.6825700  64.2806170  84.8242850  84.7137170  65.0139610
  76.2529660  75.2290280  66.7673660  76.0732500  74.3316030  67.0476420
  75.8509740  75.7762150  67.4420610  85.0928160  77.4306140  64.6685970
  85.4692980  76.5578020  64.5559640  84.9947670  77.7664840  63.7776410
  79.2233170  75.8031770  60.1303410  79.3299920  76.7035500  60.4372170
  78.3125530  75.7549740  59.8398060  88.8752280  74.9256580  61.6014310
  89.6961900  74.4353150  61.6439790  88.9086360  75.5154240  62.3546150
  76.8716330  77.7250780  65.3756000  77.5526440  77.9889150  65.9943400
  76.5564380  76.8851650  65.7094010  81.0640900  78.7718140  64.4628590
  81.5719120  79.2699110  65.1033610  81.5954140  77.9953340  64.2867950
  93.1651830  76.9423330  68.1657940  92.4604000  77.3305040  67.6473050
  93.4309750  77.6373620  68.7678870  79.3477000  73.4116700  68.7292010
  79.3495440  73.9289090  67.9237910  78.5181310  72.9346880  68.7061940
  85.7348090  83.5236010  60.2281910  85.1165360  83.9885460  59.6644630
  86.2471340  84.2163490  60.6451420  80.5979850  83.0511880  66.9065510
  80.2649230  83.6780800  67.5486580  80.7746530  83.5773760  66.1267180
  89.1113760  76.8656960  64.3741850  88.4069330  77.1541850  64.9544960
  89.4725920  77.6757070  64.0141410  79.0292330  75.1226660  66.7362460
  79.3709140  75.9668710  66.4416330  78.0908140  75.2710400  66.8527800
  75.1031290  84.2092540  57.6021540  74.7259270  84.6979640  56.8706440
  75.3604360  84.8817820  58.2328070  92.1800680  76.3111750  64.7651060
  91.2325590  76.3450730  64.8966490  92.5050670  77.1250700  65.1500420
  82.7120220  72.6108930  63.0607050  83.0195200  72.0555820  62.3442550
  81.7820920  72.7453390  62.8780040  87.6620720  83.2306060  66.6797120
  88.0789510  83.0166170  65.8450580  88.3860540  83.4878850  67.2505740
  85.1000980  80.6757760  59.7967170  84.1730260  80.6095140  60.0255640
  85.2525800  81.6137890  59.6822410  85.0870060  76.9474760  56.7934330
  84.1473730  77.1088720  56.8786790  85.4053320  77.6660440  56.2470320
  91.6082820  81.6293280  66.7713360  90.7801450  81.6986370  66.2963490
  92.2033300  82.2147590  66.3029190  89.1298270  82.2378060  60.3002420
  88.5110690  81.8997610  59.6528720  89.1122720  81.5937820  61.0081610
  88.5724830  78.4162600  67.7168230  88.1596010  79.2416310  67.9708220
  87.8400780  77.8307640  67.5244590  80.7057620  81.2022500  62.5786900
  80.3014620  80.4899750  62.0832800  80.7920740  80.8575740  63.4674940
  81.1739320  84.8890060  64.7426110  80.8767610  84.2835530  64.0633890
  82.1239140  84.9267370  64.6315470  79.4186240  77.9765710  66.3585940
  79.9700830  78.0861050  65.5839190  79.9329750  78.3503310  67.0741170
  80.2657750  84.6271750  71.3933910  79.3686280  84.8511720  71.6407310
  80.2910620  84.7506690  70.4445310  87.3062970  81.4764870  57.3075170
  87.7456250  80.6387300  57.1612990  88.0191390  82.1094270  57.3939310
  79.0928970  81.4985070  69.9691280  78.9536740  82.3707870  70.3378680
  78.2110330  81.1557880  69.8239220  90.8880110  72.7307680  55.6216210
  90.5752770  72.8234510  56.5215280  91.6492580  73.3088710  55.5713640
  77.4062250  80.0967480  60.0793550  77.2859850  80.8229570  59.4674820
  77.0963140  79.3270390  59.6021460  75.0447620  83.2682620  65.8862190
  75.1228040  83.4031390  64.9417910  75.6589300  82.5598510  66.0790310
  92.0981400  77.4679180  71.5990350  91.4825670  77.9758850  71.0705810
  91.7777820  76.5677510  71.5416290  75.1007140  84.3096790  68.4256650
  75.2638180  83.8402150  67.6076020  75.5659590  83.8020350  69.0905490
  79.8725910  73.4402550  63.4617220  79.4294060  74.2212090  63.1301740
  80.4310900  73.7632440  64.1688160  84.1595720  76.3071070  69.0652540
  83.6975090  76.5154090  69.8772480  83.7573830  75.4930420  68.7623210
  89.1600230  77.5280020  70.1949200  88.3093820  77.2285770  70.5158270
  89.0002020  77.7722030  69.2833020  86.2549940  79.0281770  72.2947990
  86.5803350  78.1945520  71.9550220  87.0430270  79.5510290  72.4426320
  82.9884730  73.0613250  58.3423050  82.3638910  73.0573120  59.0676360
  82.9014850  72.1944210  57.9459020  81.9101810  73.9849880  65.3206820
  82.2074140  74.8912710  65.2398840  82.4587370  73.4968660  64.7066390
  79.6640130  78.5636120  61.1898470  79.4381050  78.3473290  62.0945090
  78.8832660  78.9964580  60.8444440  86.8937890  78.5699490  59.7889120
  86.2946780  79.2935290  59.6052740  87.4417500  78.5076270  59.0065570
  82.1039340  79.4621700  71.8558740  82.0082940  78.5216430  71.7059140
  82.9471320  79.6836770  71.4606810  85.5002760  77.2063030  61.8192400
  85.8932330  77.5235230  61.0061090  85.8619610  76.3274910  61.9336920
  77.2349880  75.8735370  70.0092520  76.8413270  76.7210580  70.2165300
  76.5468280  75.2361740  70.2001160  83.8094930  75.9570340  73.0789260
  83.1193250  75.7642540  73.7135350  84.5527230  76.2404980  73.6113560
  74.5366930  73.7963830  64.0422600  74.2479980  74.3666690  64.7547580
  75.2812690  73.3168280  64.4053830  74.7237160  77.7383950  55.2525320
  74.6411830  78.6814710  55.3940310  74.3720220  77.5958860  54.3737670
  86.0857900  79.7968780  65.9143180  85.3539020  80.3055590  66.2633280
  85.6882240  78.9798760  65.6131960  82.5235290  76.4722980  64.3195670
  82.5271350  76.0312930  63.4700210  83.4186410  76.7940310  64.4267490
  78.3737670  76.3549470  63.2789880  78.0337720  76.8324700  64.0356930
  77.6114990  75.9014590  62.9190980  82.5855440  77.4735060  57.3102430
  82.7068260  77.4321540  58.2588250  82.2003950  78.3359210  57.1549160
  86.5483810  75.2502460  65.3266120  86.5656550  75.7011110  66.1707970
  86.2999390  74.3508100  65.5399560  81.5976940  79.7836200  56.7085730
  81.0293840  79.3354450  56.0821640  82.3065940  80.1428980  56.1750880
  89.9754560  72.6634640  71.1652500  90.3000330  71.9324300  71.6910480
  90.0111070  72.3448280  70.2633490  76.6746120  83.6848220  70.5852460
  76.2900910  83.0441890  71.1835420  76.9858310  84.3884340  71.1547190
  82.8243260  80.5324760  66.0661080  83.1913390  80.0583330  66.8122420
  82.6348320  81.4066330  66.4069420  75.6883750  75.2768450  62.1954550
  75.4030670  74.9124120  63.0333170  75.6262610  74.5448910  61.5817690
  80.6142630  79.5733400  68.3845290  80.3099700  80.4525380  68.6095650
  81.5689090  79.6333190  68.4202730  79.1424420  83.7794390  58.9812140
  78.3686680  83.2392010  58.8210860  79.8719050  83.2601000  58.6429900
  89.9012400  82.7759750  64.7738530  90.6211520  83.2715040  64.3834640
  89.6994220  82.0977640  64.1292400  85.3622340  74.1697710  58.9167920
  84.5486950  73.6710880  58.8413230  85.1684290  75.0095960  58.5004270
  85.2831200  82.8468810  70.6607530  85.2168510  81.9264480  70.4065120
  84.6536340  82.9444250  71.3752170  88.0770730  78.5417360  57.2130080
  88.9650350  78.8534590  57.0381420  88.0475820  77.6689610  56.8210660
  79.1861820  83.4474770  62.6190950  79.7040490  82.6443030  62.5647840
  78.7345840  83.3853910  63.4607780  76.6706360  80.4136140  69.5316650
  76.3121300  81.0789990  70.1189990  76.3760920  79.5819690  69.9029270
  79.8719480  80.8720380  72.4156200  79.5719620  81.0177560  71.5184020
  80.6430720  80.3125670  72.3229590  90.3485000  79.8529200  56.6809940
  90.2648720  80.2843420  55.8306380  91.0679190  80.3127550  57.1136760
  91.4259140  82.3096720  69.7579910  90.7007330  82.9025500  69.5609300
  91.9534600  82.3020260  68.9593280  86.9558730  84.0356890  63.2563760
  87.3082550  83.4385020  62.5965130  86.0721060  83.7101120  63.4272010
  75.1814410  80.4127400  56.1551250  76.0509260  80.6952200  56.4387170
  74.6904730  81.2263270  56.0400060  82.3449220  81.8000610  60.2759530
  82.8012000  82.6105860  60.5019720  81.9937430  81.4823750  61.1078020
  78.2461000  72.1438260  60.7482050  78.1175630  72.1356160  61.6966970
  77.4223020  72.4821350  60.3973060  75.2454930  73.9029380  70.2088750
  74.5313450  74.1026300  70.8141360  75.6649970  73.1268950  70.5803550
  89.3485880  83.5159860  57.6082580  89.0607580  83.9772550  58.3960460
  90.1438050  83.0557630  57.8766800  77.1660920  82.2300870  58.2833310
  76.5588870  82.9699770  58.2928610  77.6410270  82.3200230  57.4571510
  86.7393710  76.3951690  67.9590200  87.1074530  75.5746900  68.2869770
  85.8791910  76.4553580  68.3745850  90.1055740  75.3508630  58.7677760
  89.4768900  75.4554300  58.0535990  89.6107660  75.5705410  59.5571640
  82.0739770  77.6294580  60.1835640  81.3655920  78.0980920  60.6249250
  82.3584250  76.9716590  60.8180830  83.6995700  79.0491280  68.1828170
  84.1980950  79.5237100  68.8480020  83.8418650  78.1254800  68.3898200
  86.1055200  74.3545240  61.6231430  85.9822980  74.3731370  60.6740940
  87.0539760  74.4024180  61.7429830  80.2774790  75.9379660  57.5586350
  81.1265320  76.3749810  57.4926540  79.9106060  76.2499920  58.3858410
  90.9062560  75.2659240  69.0256560  90.4036160  76.0064640  69.3650370
  91.7219220  75.6543240  68.7093350  89.1984570  80.5092420  62.4717920
  88.2574710  80.5242650  62.6465610  89.5128640  79.7228380  62.9178220
  79.1766210  82.1912020  56.0321880  79.9429480  82.0793380  56.5947310
  79.2540900  81.4949990  55.3798650  77.8712970  79.6237090  56.7154770
  77.9516560  78.6764600  56.8272170  78.7632720  79.9543970  56.8215430
  86.5150590  85.0658420  72.9550300  85.9088750  85.0890020  72.2146050
  86.2104700  84.3341460  73.4917550  75.3983770  81.4452010  71.9510940
  75.9022790  80.8659290  72.5227170  74.6591190  81.7292240  72.4887310
  82.3007390  84.1666200  55.5057230  82.1958030  83.5518550  56.2318610
  82.1331610  83.6432090  54.7220240  82.4521710  82.8523000  71.4846460
  81.6867380  83.4208000  71.4001130  82.6337670  82.5599210  70.5914690
  85.5410120  83.2286230  56.1099220  84.9920220  83.6755530  56.7541960
  86.1629380  82.7235480  56.6336890  89.5945060  84.5828330  72.0421480
  90.3354530  84.9204090  71.5388940  88.8317740  84.7520390  71.4891250
  77.4306850  79.5881600  72.8461010  77.4712190  79.2895470  73.7546240
  78.2852350  79.9889210  72.6868530  81.2085240  82.1877150  58.0064520
  81.6301660  82.0217020  58.8495910  81.3336080  81.3777380  57.5119660
  79.3712660  78.1673700  70.8135500  78.8409120  77.6764650  70.1858840
  80.0400730  78.5957900  70.2793430  83.7212880  81.2114760  55.2541620
  84.2418540  80.4963780  54.8882770  84.3681280  81.8500630  55.5542130
  88.2690720  82.6343160  70.5776690  88.6831740  82.7888240  71.4267110
  87.3341720  82.7598380  70.7402470  88.7412890  79.9739320  72.5815840
  89.3233660  79.2191640  72.4936320  88.9174660  80.5046760  71.8047320
  79.8584960  75.1336070  70.8932790  79.7641830  74.5156820  70.1683660
  79.2782350  75.8602360  70.6662700  82.6246400  73.6909310  67.9260180
  82.1763700  73.7133570  67.0805730  81.9911600  73.2928330  68.5230480
  83.0305950  82.5863640  68.5472620  83.4494060  83.4296370  68.3748860
  82.1114580  82.7235680  68.3179400  85.3669850  80.3179820  69.9310460
  85.4866060  79.7220960  70.6705300  86.2263850  80.3549510  69.5111760
  87.7057750  80.8717010  68.5072970  87.1792970  81.3959630  67.9038110
  88.0489090  81.5044400  69.1382700  80.1044140  78.2610380  54.9522680
  79.9033200  77.3977740  55.3136020  79.9336190  78.1743740  54.0144280
  82.1338620  76.8601170  71.1886280  82.7238310  76.5517020  71.8764100
  81.3158860  76.3880920  71.3446180  86.9532050  76.4766980  71.4219300
  86.2647570  75.8148520  71.3569290  87.6738070  76.0305250  71.8667760
  87.5832450  73.0718610  57.4809560  87.8634740  72.2286510  57.8368980
  86.8098180  73.3041720  57.9948310  78.9026940  75.3611000  54.9400560
  79.2052840  75.3678430  54.0319710  79.6421530  75.0108860  55.4368220
  82.1211870  74.3045620  55.9256760  81.7733870  73.6269610  55.3459210
  82.3224640  73.8435130  56.7400150  91.9613170  82.3095340  58.0913470
  92.7232080  82.8791990  58.1973160  91.9767540  81.7422540  58.8621780
  75.4617510  80.8333270  62.3221130  74.8066350  80.5644910  61.6780830
  76.2995460  80.7237750  61.8723110  92.9673140  83.1645440  62.9355400
  93.3381970  82.3812760  62.5291370  93.6075070  83.8534540  62.7572700
  92.0132340  82.6029710  55.2485990  92.2881180  83.5108590  55.1205210
  91.8243080  82.5392240  56.1847980  88.4107950  75.6274560  56.5439620
  88.8292830  75.4405540  55.7036280  88.1044010  74.7753610  56.8542550
  91.9097680  80.5398700  60.2415420  91.5341280  79.7726630  59.8096710
  91.1800800  80.9221400  60.7290350  76.4993440  81.2185840  66.8624470
  76.8666480  81.1313240  67.7420490  75.9304260  80.4552390  66.7631330
  91.2997300  79.6870220  69.8754940  91.0683390  79.4582970  68.9752890
  91.5601850  80.6069770  69.8299830  76.0509440  78.1294930  70.7682890
  75.1565490  78.0961690  71.1076600  76.5906990  78.3281720  71.5334140
  89.7385370  74.9126650  72.6534640  90.6155550  74.9210050  73.0368640
  89.7506210  74.1757490  72.0426990  74.6755590  78.0432200  58.2646460
  73.7719670  78.3062400  58.0898120  75.1596210  78.3143370  57.4846420
  91.1848640  78.7656190  63.5422660  91.7086120  78.2718840  62.9112830
  91.7708060  78.9006550  64.2870230  91.3638360  78.8496060  67.0642210
  90.4141070  78.8159600  67.1787200  91.5451370  79.7596170  66.8291980
  77.2182800  77.0997740  56.1740840  77.9274500  76.6780960  55.6888120
  76.5022740  77.1672970  55.5424190  76.8656960  73.1537070  55.2143490
  77.5885090  73.6946010  55.5324710  77.1381480  72.8800490  54.3385030
  90.6748610  78.0229540  59.4815070  91.1707730  77.7900410  60.2663950
  90.4764680  77.1841380  59.0652710  76.5549150  72.4043260  65.1166110
  77.2025340  71.8540640  64.6761270  76.9750990  72.6586410  65.9381920
  92.1035770  76.6590490  62.0152750  91.9935050  76.5046530  62.9535020
  92.8643360  76.1311430  61.7728160  90.4501490  72.5984620  68.4735750
  91.0873710  73.2118760  68.8394940  90.5976380  72.6345280  67.5284980
  92.9926040  74.4898410  55.2558890  93.9175350  74.3579590  55.0477180
  92.9701830  74.5691230  56.2095340  93.0664530  75.2609070  57.8815600
  92.2716030  75.1954190  58.4108510  93.2707810  76.1959710  57.8700950
  76.3081150  72.5598930  67.8591430  75.9595970  73.0162750  68.6249610
  75.9768850  71.6656060  67.9413860  83.8205970  73.7510810  71.3810850
  83.7594860  74.3432640  72.1306260  84.7606350  73.6436770  71.2361110
  86.4580530  73.4080870  71.0203140  87.0720940  73.7260160  70.3584220
  87.0030090  72.9229460  71.6399000  76.9801790  72.0875130  71.1342200
  77.5284780  71.9063180  70.3708310  77.0457100  71.2969240  71.6698510
  87.1988570  71.9713010  67.3472430  86.3248410  72.3048120  67.1445360
  87.0899320  71.4986190  68.1724300  88.1060550  74.1783880  68.7314150
  87.7773910  73.3635640  68.3515880  89.0542850  74.1353690  68.6079840
  84.9463390  72.8882850  66.2865340  84.1635180  73.3628350  66.5662100
  84.6526320  71.9837680  66.1778520  89.4984460  73.5905950  64.3314430
  89.9392550  73.5351050  63.4836030  89.2292050  74.5063960  64.4024610
  91.3623030  73.2221190  62.3423250  91.3011430  72.2782410  62.1954270
  92.1415060  73.3301280  62.8876710  76.2903800  73.1930330  58.8079060
  77.0483160  73.3059210  58.2343090  75.8280970  74.0299530  58.7622490
  82.8317610  75.3069600  61.7981370  82.0192120  74.9326490  61.4577250
  83.3359250  74.5514680  62.1002560  87.3342590  71.9712050  63.0364440
  87.9371960  72.5432260  63.5112960  86.5935580  72.5351490  62.8138340
  90.4777190  72.3733610  58.3104720  90.6727820  73.2717060  58.5772150
  89.6907060  72.1420690  58.8037670  78.6628950  73.7194380  57.3481030
  79.1921710  72.9324180  57.2188980  79.2957270  74.3985570  57.5816560
  80.8566790  73.4569520  60.4026420  80.2269530  72.7556830  60.5696550
  80.3171930  74.2173650  60.1859580  80.9822350  72.7353500  72.8378910
  80.7006620  73.2387100  72.0739730  81.3642050  71.9375250  72.4721040
  87.5837810  72.1507080  73.4159380  87.4703260  72.4701690  74.3110900
  88.4007550  72.5519590  73.1196660  86.4895960  80.1699550  43.7794120
  86.4090010  79.2554160  43.5085830  86.0760380  80.6666620  43.0733830
  84.6214000  81.9478570  45.6603390  83.8456100  81.4679010  45.9501960
  85.2726930  81.2684220  45.4859550  78.6379830  82.2598380  46.5379150
  77.8064710  82.0047090  46.9375660  79.2460810  82.3309150  47.2737070
  77.0471780  77.2200270  40.3221540  76.1588480  77.5616240  40.2201420
  77.3312970  77.0200590  39.4302370  75.0104790  79.8205920  46.2061240
  75.5820900  79.0528120  46.2064880  75.0106330  80.1194680  45.2967850
  84.0622990  84.6235760  45.6673550  83.9931270  83.6825700  45.5062680
  84.8242850  84.7137170  46.2396120  76.2529660  75.2290280  47.9930170
  76.0732500  74.3316030  48.2732930  75.8509740  75.7762150  48.6677120
  85.0928160  77.4306140  45.8942480  85.4692980  76.5578020  45.7816150
  84.9947670  77.7664840  45.0032920  79.2233170  75.8031770  41.3559920
  79.3299920  76.7035500  41.6628680  78.3125530  75.7549740  41.0654570
  88.8752280  74.9256580  42.8270820  89.6961900  74.4353150  42.8696300
  88.9086360  75.5154240  43.5802660  76.8716330  77.7250780  46.6012510
  77.5526440  77.9889150  47.2199910  76.5564380  76.8851650  46.9350520
  81.0640900  78.7718140  45.6885100  81.5719120  79.2699110  46.3290120
  81.5954140  77.9953340  45.5124460  93.1651830  76.9423330  49.3914450
  92.4604000  77.3305040  48.8729560  93.4309750  77.6373620  49.9935380
  79.3477000  73.4116700  49.9548520  79.3495440  73.9289090  49.1494420
  78.5181310  72.9346880  49.9318450  85.7348090  83.5236010  41.4538420
  85.1165360  83.9885460  40.8901140  86.2471340  84.2163490  41.8707930
  80.5979850  83.0511880  48.1322020  80.2649230  83.6780800  48.7743090
  80.7746530  83.5773760  47.3523690  89.1113760  76.8656960  45.5998360
  88.4069330  77.1541850  46.1801470  89.4725920  77.6757070  45.2397920
  79.0292330  75.1226660  47.9618970  79.3709140  75.9668710  47.6672840
  78.0908140  75.2710400  48.0784310  75.1031290  84.2092540  38.8278050
  74.7259270  84.6979640  38.0962950  75.3604360  84.8817820  39.4584580
  92.1800680  76.3111750  45.9907570  91.2325590  76.3450730  46.1223000
  92.5050670  77.1250700  46.3756930  82.7120220  72.6108930  44.2863560
  83.0195200  72.0555820  43.5699060  81.7820920  72.7453390  44.1036550
  87.6620720  83.2306060  47.9053630  88.0789510  83.0166170  47.0707090
  88.3860540  83.4878850  48.4762250  85.1000980  80.6757760  41.0223680
  84.1730260  80.6095140  41.2512150  85.2525800  81.6137890  40.9078920
  85.0870060  76.9474760  38.0190840  84.1473730  77.1088720  38.1043300
  85.4053320  77.6660440  37.4726830  91.6082820  81.6293280  47.9969870
  90.7801450  81.6986370  47.5220000  92.2033300  82.2147590  47.5285700
  89.1298270  82.2378060  41.5258930  88.5110690  81.8997610  40.8785230
  89.1122720  81.5937820  42.2338120  88.5724830  78.4162600  48.9424740
  88.1596010  79.2416310  49.1964730  87.8400780  77.8307640  48.7501100
  80.7057620  81.2022500  43.8043410  80.3014620  80.4899750  43.3089310
  80.7920740  80.8575740  44.6931450  81.1739320  84.8890060  45.9682620
  80.8767610  84.2835530  45.2890400  82.1239140  84.9267370  45.8571980
  79.4186240  77.9765710  47.5842450  79.9700830  78.0861050  46.8095700
  79.9329750  78.3503310  48.2997680  80.2657750  84.6271750  52.6190420
  79.3686280  84.8511720  52.8663820  80.2910620  84.7506690  51.6701820
  87.3062970  81.4764870  38.5331680  87.7456250  80.6387300  38.3869500
  88.0191390  82.1094270  38.6195820  79.0928970  81.4985070  51.1947790
  78.9536740  82.3707870  51.5635190  78.2110330  81.1557880  51.0495730
  90.8880110  72.7307680  36.8472720  90.5752770  72.8234510  37.7471790
  91.6492580  73.3088710  36.7970150  77.4062250  80.0967480  41.3050060
  77.2859850  80.8229570  40.6931330  77.0963140  79.3270390  40.8277970
  75.0447620  83.2682620  47.1118700  75.1228040  83.4031390  46.1674420
  75.6589300  82.5598510  47.3046820  92.0981400  77.4679180  52.8246860
  91.4825670  77.9758850  52.2962320  91.7777820  76.5677510  52.7672800
  75.1007140  84.3096790  49.6513160  75.2638180  83.8402150  48.8332530
  75.5659590  83.8020350  50.3162000  79.8725910  73.4402550  44.6873730
  79.4294060  74.2212090  44.3558250  80.4310900  73.7632440  45.3944670
  84.1595720  76.3071070  50.2909050  83.6975090  76.5154090  51.1028990
  83.7573830  75.4930420  49.9879720  89.1600230  77.5280020  51.4205710
  88.3093820  77.2285770  51.7414780  89.0002020  77.7722030  50.5089530
  86.2549940  79.0281770  53.5204500  86.5803350  78.1945520  53.1806730
  87.0430270  79.5510290  53.6682830  82.9884730  73.0613250  39.5679560
  82.3638910  73.0573120  40.2932870  82.9014850  72.1944210  39.1715530
  81.9101810  73.9849880  46.5463330  82.2074140  74.8912710  46.4655350
  82.4587370  73.4968660  45.9322900  79.6640130  78.5636120  42.4154980
  79.4381050  78.3473290  43.3201600  78.8832660  78.9964580  42.0700950
  86.8937890  78.5699490  41.0145630  86.2946780  79.2935290  40.8309250
  87.4417500  78.5076270  40.2322080  82.1039340  79.4621700  53.0815250
  82.0082940  78.5216430  52.9315650  82.9471320  79.6836770  52.6863320
  85.5002760  77.2063030  43.0448910  85.8932330  77.5235230  42.2317600
  85.8619610  76.3274910  43.1593430  77.2349880  75.8735370  51.2349030
  76.8413270  76.7210580  51.4421810  76.5468280  75.2361740  51.4257670
  83.8094930  75.9570340  54.3045770  83.1193250  75.7642540  54.9391860
  84.5527230  76.2404980  54.8370070  74.5366930  73.7963830  45.2679110
  74.2479980  74.3666690  45.9804090  75.2812690  73.3168280  45.6310340
  74.7237160  77.7383950  36.4781830  74.6411830  78.6814710  36.6196820
  74.3720220  77.5958860  35.5994180  86.0857900  79.7968780  47.1399690
  85.3539020  80.3055590  47.4889790  85.6882240  78.9798760  46.8388470
  82.5235290  76.4722980  45.5452180  82.5271350  76.0312930  44.6956720
  83.4186410  76.7940310  45.6524000  78.3737670  76.3549470  44.5046390
  78.0337720  76.8324700  45.2613440  77.6114990  75.9014590  44.1447490
  82.5855440  77.4735060  38.5358940  82.7068260  77.4321540  39.4844760
  82.2003950  78.3359210  38.3805670  86.5483810  75.2502460  46.5522630
  86.5656550  75.7011110  47.3964480  86.2999390  74.3508100  46.7656070
  81.5976940  79.7836200  37.9342240  81.0293840  79.3354450  37.3078150
  82.3065940  80.1428980  37.4007390  89.9754560  72.6634640  52.3909010
  90.3000330  71.9324300  52.9166990  90.0111070  72.3448280  51.4890000
  76.6746120  83.6848220  51.8108970  76.2900910  83.0441890  52.4091930
  76.9858310  84.3884340  52.3803700  82.8243260  80.5324760  47.2917590
  83.1913390  80.0583330  48.0378930  82.6348320  81.4066330  47.6325930
  75.6883750  75.2768450  43.4211060  75.4030670  74.9124120  44.2589680
  75.6262610  74.5448910  42.8074200  80.6142630  79.5733400  49.6101800
  80.3099700  80.4525380  49.8352160  81.5689090  79.6333190  49.6459240
  79.1424420  83.7794390  40.2068650  78.3686680  83.2392010  40.0467370
  79.8719050  83.2601000  39.8686410  89.9012400  82.7759750  45.9995040
  90.6211520  83.2715040  45.6091150  89.6994220  82.0977640  45.3548910
  85.3622340  74.1697710  40.1424430  84.5486950  73.6710880  40.0669740
  85.1684290  75.0095960  39.7260780  85.2831200  82.8468810  51.8864040
  85.2168510  81.9264480  51.6321630  84.6536340  82.9444250  52.6008680
  88.0770730  78.5417360  38.4386590  88.9650350  78.8534590  38.2637930
  88.0475820  77.6689610  38.0467170  79.1861820  83.4474770  43.8447460
  79.7040490  82.6443030  43.7904350  78.7345840  83.3853910  44.6864290
  76.6706360  80.4136140  50.7573160  76.3121300  81.0789990  51.3446500
  76.3760920  79.5819690  51.1285780  79.8719480  80.8720380  53.6412710
  79.5719620  81.0177560  52.7440530  80.6430720  80.3125670  53.5486100
  90.3485000  79.8529200  37.9066450  90.2648720  80.2843420  37.0562890
  91.0679190  80.3127550  38.3393270  91.4259140  82.3096720  50.9836420
  90.7007330  82.9025500  50.7865810  91.9534600  82.3020260  50.1849790
  86.9558730  84.0356890  44.4820270  87.3082550  83.4385020  43.8221640
  86.0721060  83.7101120  44.6528520  75.1814410  80.4127400  37.3807760
  76.0509260  80.6952200  37.6643680  74.6904730  81.2263270  37.2656570
  82.3449220  81.8000610  41.5016040  82.8012000  82.6105860  41.7276230
  81.9937430  81.4823750  42.3334530  78.2461000  72.1438260  41.9738560
  78.1175630  72.1356160  42.9223480  77.4223020  72.4821350  41.6229570
  75.2454930  73.9029380  51.4345260  74.5313450  74.1026300  52.0397870
  75.6649970  73.1268950  51.8060060  89.3485880  83.5159860  38.8339090
  89.0607580  83.9772550  39.6216970  90.1438050  83.0557630  39.1023310
  77.1660920  82.2300870  39.5089820  76.5588870  82.9699770  39.5185120
  77.6410270  82.3200230  38.6828020  86.7393710  76.3951690  49.1846710
  87.1074530  75.5746900  49.5126280  85.8791910  76.4553580  49.6002360
  90.1055740  75.3508630  39.9934270  89.4768900  75.4554300  39.2792500
  89.6107660  75.5705410  40.7828150  82.0739770  77.6294580  41.4092150
  81.3655920  78.0980920  41.8505760  82.3584250  76.9716590  42.0437340
  83.6995700  79.0491280  49.4084680  84.1980950  79.5237100  50.0736530
  83.8418650  78.1254800  49.6154710  86.1055200  74.3545240  42.8487940
  85.9822980  74.3731370  41.8997450  87.0539760  74.4024180  42.9686340
  80.2774790  75.9379660  38.7842860  81.1265320  76.3749810  38.7183050
  79.9106060  76.2499920  39.6114920  90.9062560  75.2659240  50.2513070
  90.4036160  76.0064640  50.5906880  91.7219220  75.6543240  49.9349860
  89.1984570  80.5092420  43.6974430  88.2574710  80.5242650  43.8722120
  89.5128640  79.7228380  44.1434730  79.1766210  82.1912020  37.2578390
  79.9429480  82.0793380  37.8203820  79.2540900  81.4949990  36.6055160
  77.8712970  79.6237090  37.9411280  77.9516560  78.6764600  38.0528680
  78.7632720  79.9543970  38.0471940  86.5150590  85.0658420  54.1806810
  85.9088750  85.0890020  53.4402560  86.2104700  84.3341460  54.7174060
  75.3983770  81.4452010  53.1767450  75.9022790  80.8659290  53.7483680
  74.6591190  81.7292240  53.7143820  82.3007390  84.1666200  36.7313740
  82.1958030  83.5518550  37.4575120  82.1331610  83.6432090  35.9476750
  82.4521710  82.8523000  52.7102970  81.6867380  83.4208000  52.6257640
  82.6337670  82.5599210  51.8171200  85.5410120  83.2286230  37.3355730
  84.9920220  83.6755530  37.9798470  86.1629380  82.7235480  37.8593400
  89.5945060  84.5828330  53.2677990  90.3354530  84.9204090  52.7645450
  88.8317740  84.7520390  52.7147760  77.4306850  79.5881600  54.0717520
  77.4712190  79.2895470  54.9802750  78.2852350  79.9889210  53.9125040
  81.2085240  82.1877150  39.2321030  81.6301660  82.0217020  40.0752420
  81.3336080  81.3777380  38.7376170  79.3712660  78.1673700  52.0392010
  78.8409120  77.6764650  51.4115350  80.0400730  78.5957900  51.5049940
  83.7212880  81.2114760  36.4798130  84.2418540  80.4963780  36.1139280
  84.3681280  81.8500630  36.7798640  88.2690720  82.6343160  51.8033200
  88.6831740  82.7888240  52.6523620  87.3341720  82.7598380  51.9658980
  88.7412890  79.9739320  53.8072350  89.3233660  79.2191640  53.7192830
  88.9174660  80.5046760  53.0303830  79.8584960  75.1336070  52.1189300
  79.7641830  74.5156820  51.3940170  79.2782350  75.8602360  51.8919210
  82.6246400  73.6909310  49.1516690  82.1763700  73.7133570  48.3062240
  81.9911600  73.2928330  49.7486990  83.0305950  82.5863640  49.7729130
  83.4494060  83.4296370  49.6005370  82.1114580  82.7235680  49.5435910
  85.3669850  80.3179820  51.1566970  85.4866060  79.7220960  51.8961810
  86.2263850  80.3549510  50.7368270  87.7057750  80.8717010  49.7329480
  87.1792970  81.3959630  49.1294620  88.0489090  81.5044400  50.3639210
  80.1044140  78.2610380  36.1779190  79.9033200  77.3977740  36.5392530
  79.9336190  78.1743740  35.2400790  82.1338620  76.8601170  52.4142790
  82.7238310  76.5517020  53.1020610  81.3158860  76.3880920  52.5702690
  86.9532050  76.4766980  52.6475810  86.2647570  75.8148520  52.5825800
  87.6738070  76.0305250  53.0924270  87.5832450  73.0718610  38.7066070
  87.8634740  72.2286510  39.0625490  86.8098180  73.3041720  39.2204820
  78.9026940  75.3611000  36.1657070  79.2052840  75.3678430  35.2576220
  79.6421530  75.0108860  36.6624730  82.1211870  74.3045620  37.1513270
  81.7733870  73.6269610  36.5715720  82.3224640  73.8435130  37.9656660
  91.9613170  82.3095340  39.3169980  92.7232080  82.8791990  39.4229670
  91.9767540  81.7422540  40.0878290  75.4617510  80.8333270  43.5477640
  74.8066350  80.5644910  42.9037340  76.2995460  80.7237750  43.0979620
  92.9673140  83.1645440  44.1611910  93.3381970  82.3812760  43.7547880
  93.6075070  83.8534540  43.9829210  92.0132340  82.6029710  36.4742500
  92.2881180  83.5108590  36.3461720  91.8243080  82.5392240  37.4104490
  88.4107950  75.6274560  37.7696130  88.8292830  75.4405540  36.9292790
  88.1044010  74.7753610  38.0799060  91.9097680  80.5398700  41.4671930
  91.5341280  79.7726630  41.0353220  91.1800800  80.9221400  41.9546860
  76.4993440  81.2185840  48.0880980  76.8666480  81.1313240  48.9677000
  75.9304260  80.4552390  47.9887840  91.2997300  79.6870220  51.1011450
  91.0683390  79.4582970  50.2009400  91.5601850  80.6069770  51.0556340
  76.0509440  78.1294930  51.9939400  75.1565490  78.0961690  52.3333110
  76.5906990  78.3281720  52.7590650  89.7385370  74.9126650  53.8791150
  90.6155550  74.9210050  54.2625150  89.7506210  74.1757490  53.2683500
  74.6755590  78.0432200  39.4902970  73.7719670  78.3062400  39.3154630
  75.1596210  78.3143370  38.7102930  91.1848640  78.7656190  44.7679170
  91.7086120  78.2718840  44.1369340  91.7708060  78.9006550  45.5126740
  91.3638360  78.8496060  48.2898720  90.4141070  78.8159600  48.4043710
  91.5451370  79.7596170  48.0548490  77.2182800  77.0997740  37.3997350
  77.9274500  76.6780960  36.9144630  76.5022740  77.1672970  36.7680700
  76.8656960  73.1537070  36.4400000  77.5885090  73.6946010  36.7581220
  77.1381480  72.8800490  35.5641540  90.6748610  78.0229540  40.7071580
  91.1707730  77.7900410  41.4920460  90.4764680  77.1841380  40.2909220
  76.5549150  72.4043260  46.3422620  77.2025340  71.8540640  45.9017780
  76.9750990  72.6586410  47.1638430  92.1035770  76.6590490  43.2409260
  91.9935050  76.5046530  44.1791530  92.8643360  76.1311430  42.9984670
  90.4501490  72.5984620  49.6992260  91.0873710  73.2118760  50.0651450
  90.5976380  72.6345280  48.7541490  92.9926040  74.4898410  36.4815400
  93.9175350  74.3579590  36.2733690  92.9701830  74.5691230  37.4351850
  93.0664530  75.2609070  39.1072110  92.2716030  75.1954190  39.6365020
  93.2707810  76.1959710  39.0957460  76.3081150  72.5598930  49.0847940
  75.9595970  73.0162750  49.8506120  75.9768850  71.6656060  49.1670370
  83.8205970  73.7510810  52.6067360  83.7594860  74.3432640  53.3562770
  84.7606350  73.6436770  52.4617620  86.4580530  73.4080870  52.2459650
  87.0720940  73.7260160  51.5840730  87.0030090  72.9229460  52.8655510
  76.9801790  72.0875130  52.3598710  77.5284780  71.9063180  51.5964820
  77.0457100  71.2969240  52.8955020  87.1988570  71.9713010  48.5728940
  86.3248410  72.3048120  48.3701870  87.0899320  71.4986190  49.3980810
  88.1060550  74.1783880  49.9570660  87.7773910  73.3635640  49.5772390
  89.0542850  74.1353690  49.8336350  84.9463390  72.8882850  47.5121850
  84.1635180  73.3628350  47.7918610  84.6526320  71.9837680  47.4035030
  89.4984460  73.5905950  45.5570940  89.9392550  73.5351050  44.7092540
  89.2292050  74.5063960  45.6281120  91.3623030  73.2221190  43.5679760
  91.3011430  72.2782410  43.4210780  92.1415060  73.3301280  44.1133220
  76.2903800  73.1930330  40.0335570  77.0483160  73.3059210  39.4599600
  75.8280970  74.0299530  39.9879000  82.8317610  75.3069600  43.0237880
  82.0192120  74.9326490  42.6833760  83.3359250  74.5514680  43.3259070
  87.3342590  71.9712050  44.2620950  87.9371960  72.5432260  44.7369470
  86.5935580  72.5351490  44.0394850  90.4777190  72.3733610  39.5361230
  90.6727820  73.2717060  39.8028660  89.6907060  72.1420690  40.0294180
  78.6628950  73.7194380  38.5737540  79.1921710  72.9324180  38.4445490
  79.2957270  74.3985570  38.8073070  80.8566790  73.4569520  41.6282930
  80.2269530  72.7556830  41.7953060  80.3171930  74.2173650  41.4116090
  80.9822350  72.7353500  54.0635420  80.7006620  73.2387100  53.2996240
  81.3642050  71.9375250  53.6977550  87.5837810  72.1507080  54.6415890
  87.4703260  72.4701690  55.5367410  88.4007550  72.5519590  54.3453170
  86.4895960  80.1699550  25.0050630  86.4090010  79.2554160  24.7342340
  86.0760380  80.6666620  24.2990340  84.6214000  81.9478570  26.8859900
  83.8456100  81.4679010  27.1758470  85.2726930  81.2684220  26.7116060
  78.6379830  82.2598380  27.7635660  77.8064710  82.0047090  28.1632170
  79.2460810  82.3309150  28.4993580  77.0471780  77.2200270  21.5478050
  76.1588480  77.5616240  21.4457930  77.3312970  77.0200590  20.6558880
  75.0104790  79.8205920  27.4317750  75.5820900  79.0528120  27.4321390
  75.0106330  80.1194680  26.5224360  84.0622990  84.6235760  26.8930060
  83.9931270  83.6825700  26.7319190  84.8242850  84.7137170  27.4652630
  76.2529660  75.2290280  29.2186680  76.0732500  74.3316030  29.4989440
  75.8509740  75.7762150  29.8933630  85.0928160  77.4306140  27.1198990
  85.4692980  76.5578020  27.0072660  84.9947670  77.7664840  26.2289430
  79.2233170  75.8031770  22.5816430  79.3299920  76.7035500  22.8885190
  78.3125530  75.7549740  22.2911080  88.8752280  74.9256580  24.0527330
  89.6961900  74.4353150  24.0952810  88.9086360  75.5154240  24.8059170
  76.8716330  77.7250780  27.8269020  77.5526440  77.9889150  28.4456420
  76.5564380  76.8851650  28.1607030  81.0640900  78.7718140  26.9141610
  81.5719120  79.2699110  27.5546630  81.5954140  77.9953340  26.7380970
  93.1651830  76.9423330  30.6170960  92.4604000  77.3305040  30.0986070
  93.4309750  77.6373620  31.2191890  79.3477000  73.4116700  31.1805030
  79.3495440  73.9289090  30.3750930  78.5181310  72.9346880  31.1574960
  85.7348090  83.5236010  22.6794930  85.1165360  83.9885460  22.1157650
  86.2471340  84.2163490  23.0964440  80.5979850  83.0511880  29.3578530
  80.2649230  83.6780800  29.9999600  80.7746530  83.5773760  28.5780200
  89.1113760  76.8656960  26.8254870  88.4069330  77.1541850  27.4057980
  89.4725920  77.6757070  26.4654430  79.0292330  75.1226660  29.1875480
  79.3709140  75.9668710  28.8929350  78.0908140  75.2710400  29.3040820
  75.1031290  84.2092540  20.0534560  74.7259270  84.6979640  19.3219460
  75.3604360  84.8817820  20.6841090  92.1800680  76.3111750  27.2164080
  91.2325590  76.3450730  27.3479510  92.5050670  77.1250700  27.6013440
  82.7120220  72.6108930  25.5120070  83.0195200  72.0555820  24.7955570
  81.7820920  72.7453390  25.3293060  87.6620720  83.2306060  29.1310140
  88.0789510  83.0166170  28.2963600  88.3860540  83.4878850  29.7018760
  85.1000980  80.6757760  22.2480190  84.1730260  80.6095140  22.4768660
  85.2525800  81.6137890  22.1335430  85.0870060  76.9474760  19.2447350
  84.1473730  77.1088720  19.3299810  85.4053320  77.6660440  18.6983340
  91.6082820  81.6293280  29.2226380  90.7801450  81.6986370  28.7476510
  92.2033300  82.2147590  28.7542210  89.1298270  82.2378060  22.7515440
  88.5110690  81.8997610  22.1041740  89.1122720  81.5937820  23.4594630
  88.5724830  78.4162600  30.1681250  88.1596010  79.2416310  30.4221240
  87.8400780  77.8307640  29.9757610  80.7057620  81.2022500  25.0299920
  80.3014620  80.4899750  24.5345820  80.7920740  80.8575740  25.9187960
  81.1739320  84.8890060  27.1939130  80.8767610  84.2835530  26.5146910
  82.1239140  84.9267370  27.0828490  79.4186240  77.9765710  28.8098960
  79.9700830  78.0861050  28.0352210  79.9329750  78.3503310  29.5254190
  80.2657750  84.6271750  33.8446930  79.3686280  84.8511720  34.0920330
  80.2910620  84.7506690  32.8958330  87.3062970  81.4764870  19.7588190
  87.7456250  80.6387300  19.6126010  88.0191390  82.1094270  19.8452330
  79.0928970  81.4985070  32.4204300  78.9536740  82.3707870  32.7891700
  78.2110330  81.1557880  32.2752240  90.8880110  72.7307680  18.0729230
  90.5752770  72.8234510  18.9728300  91.6492580  73.3088710  18.0226660
  77.4062250  80.0967480  22.5306570  77.2859850  80.8229570  21.9187840
  77.0963140  79.3270390  22.0534480  75.0447620  83.2682620  28.3375210
  75.1228040  83.4031390  27.3930930  75.6589300  82.5598510  28.5303330
  92.0981400  77.4679180  34.0503370  91.4825670  77.9758850  33.5218830
  91.7777820  76.5677510  33.9929310  75.1007140  84.3096790  30.8769670
  75.2638180  83.8402150  30.0589040  75.5659590  83.8020350  31.5418510
  79.8725910  73.4402550  25.9130240  79.4294060  74.2212090  25.5814760
  80.4310900  73.7632440  26.6201180  84.1595720  76.3071070  31.5165560
  83.6975090  76.5154090  32.3285500  83.7573830  75.4930420  31.2136230
  89.1600230  77.5280020  32.6462220  88.3093820  77.2285770  32.9671290
  89.0002020  77.7722030  31.7346040  86.2549940  79.0281770  34.7461010
  86.5803350  78.1945520  34.4063240  87.0430270  79.5510290  34.8939340
  82.9884730  73.0613250  20.7936070  82.3638910  73.0573120  21.5189380
  82.9014850  72.1944210  20.3972040  81.9101810  73.9849880  27.7719840
  82.2074140  74.8912710  27.6911860  82.4587370  73.4968660  27.1579410
  79.6640130  78.5636120  23.6411490  79.4381050  78.3473290  24.5458110
  78.8832660  78.9964580  23.2957460  86.8937890  78.5699490  22.2402140
  86.2946780  79.2935290  22.0565760  87.4417500  78.5076270  21.4578590
  82.1039340  79.4621700  34.3071760  82.0082940  78.5216430  34.1572160
  82.9471320  79.6836770  33.9119830  85.5002760  77.2063030  24.2705420
  85.8932330  77.5235230  23.4574110  85.8619610  76.3274910  24.3849940
  77.2349880  75.8735370  32.4605540  76.8413270  76.7210580  32.6678320
  76.5468280  75.2361740  32.6514180  83.8094930  75.9570340  35.5302280
  83.1193250  75.7642540  36.1648370  84.5527230  76.2404980  36.0626580
  74.5366930  73.7963830  26.4935620  74.2479980  74.3666690  27.2060600
  75.2812690  73.3168280  26.8566850  74.7237160  77.7383950  17.7038340
  74.6411830  78.6814710  17.8453330  74.3720220  77.5958860  16.8250690
  86.0857900  79.7968780  28.3656200  85.3539020  80.3055590  28.7146300
  85.6882240  78.9798760  28.0644980  82.5235290  76.4722980  26.7708690
  82.5271350  76.0312930  25.9213230  83.4186410  76.7940310  26.8780510
  78.3737670  76.3549470  25.7302900  78.0337720  76.8324700  26.4869950
  77.6114990  75.9014590  25.3704000  82.5855440  77.4735060  19.7615450
  82.7068260  77.4321540  20.7101270  82.2003950  78.3359210  19.6062180
  86.5483810  75.2502460  27.7779140  86.5656550  75.7011110  28.6220990
  86.2999390  74.3508100  27.9912580  81.5976940  79.7836200  19.1598750
  81.0293840  79.3354450  18.5334660  82.3065940  80.1428980  18.6263900
  89.9754560  72.6634640  33.6165520  90.3000330  71.9324300  34.1423500
  90.0111070  72.3448280  32.7146510  76.6746120  83.6848220  33.0365480
  76.2900910  83.0441890  33.6348440  76.9858310  84.3884340  33.6060210
  82.8243260  80.5324760  28.5174100  83.1913390  80.0583330  29.2635440
  82.6348320  81.4066330  28.8582440  75.6883750  75.2768450  24.6467570
  75.4030670  74.9124120  25.4846190  75.6262610  74.5448910  24.0330710
  80.6142630  79.5733400  30.8358310  80.3099700  80.4525380  31.0608670
  81.5689090  79.6333190  30.8715750  79.1424420  83.7794390  21.4325160
  78.3686680  83.2392010  21.2723880  79.8719050  83.2601000  21.0942920
  89.9012400  82.7759750  27.2251550  90.6211520  83.2715040  26.8347660
  89.6994220  82.0977640  26.5805420  85.3622340  74.1697710  21.3680940
  84.5486950  73.6710880  21.2926250  85.1684290  75.0095960  20.9517290
  85.2831200  82.8468810  33.1120550  85.2168510  81.9264480  32.8578140
  84.6536340  82.9444250  33.8265190  88.0770730  78.5417360  19.6643100
  88.9650350  78.8534590  19.4894440  88.0475820  77.6689610  19.2723680
  79.1861820  83.4474770  25.0703970  79.7040490  82.6443030  25.0160860
  78.7345840  83.3853910  25.9120800  76.6706360  80.4136140  31.9829670
  76.3121300  81.0789990  32.5703010  76.3760920  79.5819690  32.3542290
  79.8719480  80.8720380  34.8669220  79.5719620  81.0177560  33.9697040
  80.6430720  80.3125670  34.7742610  90.3485000  79.8529200  19.1322960
  90.2648720  80.2843420  18.2819400  91.0679190  80.3127550  19.5649780
  91.4259140  82.3096720  32.2092930  90.7007330  82.9025500  32.0122320
  91.9534600  82.3020260  31.4106300  86.9558730  84.0356890  25.7076780
  87.3082550  83.4385020  25.0478150  86.0721060  83.7101120  25.8785030
  75.1814410  80.4127400  18.6064270  76.0509260  80.6952200  18.8900190
  74.6904730  81.2263270  18.4913080  82.3449220  81.8000610  22.7272550
  82.8012000  82.6105860  22.9532740  81.9937430  81.4823750  23.5591040
  78.2461000  72.1438260  23.1995070  78.1175630  72.1356160  24.1479990
  77.4223020  72.4821350  22.8486080  75.2454930  73.9029380  32.6601770
  74.5313450  74.1026300  33.2654380  75.6649970  73.1268950  33.0316570
  89.3485880  83.5159860  20.0595600  89.0607580  83.9772550  20.8473480
  90.1438050  83.0557630  20.3279820  77.1660920  82.2300870  20.7346330
  76.5588870  82.9699770  20.7441630  77.6410270  82.3200230  19.9084530
  86.7393710  76.3951690  30.4103220  87.1074530  75.5746900  30.7382790
  85.8791910  76.4553580  30.8258870  90.1055740  75.3508630  21.2190780
  89.4768900  75.4554300  20.5049010  89.6107660  75.5705410  22.0084660
  82.0739770  77.6294580  22.6348660  81.3655920  78.0980920  23.0762270
  82.3584250  76.9716590  23.2693850  83.6995700  79.0491280  30.6341190
  84.1980950  79.5237100  31.2993040  83.8418650  78.1254800  30.8411220
  86.1055200  74.3545240  24.0744450  85.9822980  74.3731370  23.1253960
  87.0539760  74.4024180  24.1942850  80.2774790  75.9379660  20.0099370
  81.1265320  76.3749810  19.9439560  79.9106060  76.2499920  20.8371430
  90.9062560  75.2659240  31.4769580  90.4036160  76.0064640  31.8163390
  91.7219220  75.6543240  31.1606370  89.1984570  80.5092420  24.9230940
  88.2574710  80.5242650  25.0978630  89.5128640  79.7228380  25.3691240
  79.1766210  82.1912020  18.4834900  79.9429480  82.0793380  19.0460330
  79.2540900  81.4949990  17.8311670  77.8712970  79.6237090  19.1667790
  77.9516560  78.6764600  19.2785190  78.7632720  79.9543970  19.2728450
  86.5150590  85.0658420  35.4063320  85.9088750  85.0890020  34.6659070
  86.2104700  84.3341460  35.9430570  75.3983770  81.4452010  34.4023960
  75.9022790  80.8659290  34.9740190  74.6591190  81.7292240  34.9400330
  82.3007390  84.1666200  17.9570250  82.1958030  83.5518550  18.6831630
  82.1331610  83.6432090  17.1733260  82.4521710  82.8523000  33.9359480
  81.6867380  83.4208000  33.8514150  82.6337670  82.5599210  33.0427710
  85.5410120  83.2286230  18.5612240  84.9920220  83.6755530  19.2054980
  86.1629380  82.7235480  19.0849910  89.5945060  84.5828330  34.4934500
  90.3354530  84.9204090  33.9901960  88.8317740  84.7520390  33.9404270
  77.4306850  79.5881600  35.2974030  77.4712190  79.2895470  36.2059260
  78.2852350  79.9889210  35.1381550  81.2085240  82.1877150  20.4577540
  81.6301660  82.0217020  21.3008930  81.3336080  81.3777380  19.9632680
  79.3712660  78.1673700  33.2648520  78.8409120  77.6764650  32.6371860
  80.0400730  78.5957900  32.7306450  83.7212880  81.2114760  17.7054640
  84.2418540  80.4963780  17.3395790  84.3681280  81.8500630  18.0055150
  88.2690720  82.6343160  33.0289710  88.6831740  82.7888240  33.8780130
  87.3341720  82.7598380  33.1915490  88.7412890  79.9739320  35.0328860
  89.3233660  79.2191640  34.9449340  88.9174660  80.5046760  34.2560340
  79.8584960  75.1336070  33.3445810  79.7641830  74.5156820  32.6196680
  79.2782350  75.8602360  33.1175720  82.6246400  73.6909310  30.3773200
  82.1763700  73.7133570  29.5318750  81.9911600  73.2928330  30.9743500
  83.0305950  82.5863640  30.9985640  83.4494060  83.4296370  30.8261880
  82.1114580  82.7235680  30.7692420  85.3669850  80.3179820  32.3823480
  85.4866060  79.7220960  33.1218320  86.2263850  80.3549510  31.9624780
  87.7057750  80.8717010  30.9585990  87.1792970  81.3959630  30.3551130
  88.0489090  81.5044400  31.5895720  80.1044140  78.2610380  17.4035700
  79.9033200  77.3977740  17.7649040  79.9336190  78.1743740  16.4657300
  82.1338620  76.8601170  33.6399300  82.7238310  76.5517020  34.3277120
  81.3158860  76.3880920  33.7959200  86.9532050  76.4766980  33.8732320
  86.2647570  75.8148520  33.8082310  87.6738070  76.0305250  34.3180780
  87.5832450  73.0718610  19.9322580  87.8634740  72.2286510  20.2882000
  86.8098180  73.3041720  20.4461330  78.9026940  75.3611000  17.3913580
  79.2052840  75.3678430  16.4832730  79.6421530  75.0108860  17.8881240
  82.1211870  74.3045620  18.3769780  81.7733870  73.6269610  17.7972230
  82.3224640  73.8435130  19.1913170  91.9613170  82.3095340  20.5426490
  92.7232080  82.8791990  20.6486180  91.9767540  81.7422540  21.3134800
  75.4617510  80.8333270  24.7734150  74.8066350  80.5644910  24.1293850
  76.2995460  80.7237750  24.3236130  92.9673140  83.1645440  25.3868420
  93.3381970  82.3812760  24.9804390  93.6075070  83.8534540  25.2085720
  92.0132340  82.6029710  17.6999010  92.2881180  83.5108590  17.5718230
  91.8243080  82.5392240  18.6361000  88.4107950  75.6274560  18.9952640
  88.8292830  75.4405540  18.1549300  88.1044010  74.7753610  19.3055570
  91.9097680  80.5398700  22.6928440  91.5341280  79.7726630  22.2609730
  91.1800800  80.9221400  23.1803370  76.4993440  81.2185840  29.3137490
  76.8666480  81.1313240  30.1933510  75.9304260  80.4552390  29.2144350
  91.2997300  79.6870220  32.3267960  91.0683390  79.4582970  31.4265910
  91.5601850  80.6069770  32.2812850  76.0509440  78.1294930  33.2195910
  75.1565490  78.0961690  33.5589620  76.5906990  78.3281720  33.9847160
  89.7385370  74.9126650  35.1047660  90.6155550  74.9210050  35.4881660
  89.7506210  74.1757490  34.4940010  74.6755590  78.0432200  20.7159480
  73.7719670  78.3062400  20.5411140  75.1596210  78.3143370  19.9359440
  91.1848640  78.7656190  25.9935680  91.7086120  78.2718840  25.3625850
  91.7708060  78.9006550  26.7383250  91.3638360  78.8496060  29.5155230
  90.4141070  78.8159600  29.6300220  91.5451370  79.7596170  29.2805000
  77.2182800  77.0997740  18.6253860  77.9274500  76.6780960  18.1401140
  76.5022740  77.1672970  17.9937210  76.8656960  73.1537070  17.6656510
  77.5885090  73.6946010  17.9837730  77.1381480  72.8800490  16.7898050
  90.6748610  78.0229540  21.9328090  91.1707730  77.7900410  22.7176970
  90.4764680  77.1841380  21.5165730  76.5549150  72.4043260  27.5679130
  77.2025340  71.8540640  27.1274290  76.9750990  72.6586410  28.3894940
  92.1035770  76.6590490  24.4665770  91.9935050  76.5046530  25.4048040
  92.8643360  76.1311430  24.2241180  90.4501490  72.5984620  30.9248770
  91.0873710  73.2118760  31.2907960  90.5976380  72.6345280  29.9798000
  92.9926040  74.4898410  17.7071910  93.9175350  74.3579590  17.4990200
  92.9701830  74.5691230  18.6608360  93.0664530  75.2609070  20.3328620
  92.2716030  75.1954190  20.8621530  93.2707810  76.1959710  20.3213970
  76.3081150  72.5598930  30.3104450  75.9595970  73.0162750  31.0762630
  75.9768850  71.6656060  30.3926880  83.8205970  73.7510810  33.8323870
  83.7594860  74.3432640  34.5819280  84.7606350  73.6436770  33.6874130
  86.4580530  73.4080870  33.4716160  87.0720940  73.7260160  32.8097240
  87.0030090  72.9229460  34.0912020  76.9801790  72.0875130  33.5855220
  77.5284780  71.9063180  32.8221330  77.0457100  71.2969240  34.1211530
  87.1988570  71.9713010  29.7985450  86.3248410  72.3048120  29.5958380
  87.0899320  71.4986190  30.6237320  88.1060550  74.1783880  31.1827170
  87.7773910  73.3635640  30.8028900  89.0542850  74.1353690  31.0592860
  84.9463390  72.8882850  28.7378360  84.1635180  73.3628350  29.0175120
  84.6526320  71.9837680  28.6291540  89.4984460  73.5905950  26.7827450
  89.9392550  73.5351050  25.9349050  89.2292050  74.5063960  26.8537630
  91.3623030  73.2221190  24.7936270  91.3011430  72.2782410  24.6467290
  92.1415060  73.3301280  25.3389730  76.2903800  73.1930330  21.2592080
  77.0483160  73.3059210  20.6856110  75.8280970  74.0299530  21.2135510
  82.8317610  75.3069600  24.2494390  82.0192120  74.9326490  23.9090270
  83.3359250  74.5514680  24.5515580  87.3342590  71.9712050  25.4877460
  87.9371960  72.5432260  25.9625980  86.5935580  72.5351490  25.2651360
  90.4777190  72.3733610  20.7617740  90.6727820  73.2717060  21.0285170
  89.6907060  72.1420690  21.2550690  78.6628950  73.7194380  19.7994050
  79.1921710  72.9324180  19.6702000  79.2957270  74.3985570  20.0329580
  80.8566790  73.4569520  22.8539440  80.2269530  72.7556830  23.0209570
  80.3171930  74.2173650  22.6372600  80.9822350  72.7353500  35.2891930
  80.7006620  73.2387100  34.5252750  81.3642050  71.9375250  34.9234060
  87.5837810  72.1507080  35.8672400  87.4703260  72.4701690  36.7623920
  88.4007550  72.5519590  35.5709680  86.4895960  80.1699550   6.2307140
  86.4090010  79.2554160   5.9598850  86.0760380  80.6666620   5.5246850
  84.6214000  81.9478570   8.1116410  83.8456100  81.4679010   8.4014980
  85.2726930  81.2684220   7.9372570  78.6379830  82.2598380   8.9892170
  77.8064710  82.0047090   9.3888680  79.2460810  82.3309150   9.7250090
  77.0471780  77.2200270   2.7734560  76.1588480  77.5616240   2.6714440
  77.3312970  77.0200590   1.8815390  75.0104790  79.8205920   8.6574260
  75.5820900  79.0528120   8.6577900  75.0106330  80.1194680   7.7480870
  84.0622990  84.6235760   8.1186570  83.9931270  83.6825700   7.9575700
  84.8242850  84.7137170   8.6909140  76.2529660  75.2290280  10.4443190
  76.0732500  74.3316030  10.7245950  75.8509740  75.7762150  11.1190140
  85.0928160  77.4306140   8.3455500  85.4692980  76.5578020   8.2329170
  84.9947670  77.7664840   7.4545940  79.2233170  75.8031770   3.8072940
  79.3299920  76.7035500   4.1141700  78.3125530  75.7549740   3.5167590
  88.8752280  74.9256580   5.2783840  89.6961900  74.4353150   5.3209320
  88.9086360  75.5154240   6.0315680  76.8716330  77.7250780   9.0525530
  77.5526440  77.9889150   9.6712930  76.5564380  76.8851650   9.3863540
  81.0640900  78.7718140   8.1398120  81.5719120  79.2699110   8.7803140
  81.5954140  77.9953340   7.9637480  93.1651830  76.9423330  11.8427470
  92.4604000  77.3305040  11.3242580  93.4309750  77.6373620  12.4448400
  79.3477000  73.4116700  12.4061540  79.3495440  73.9289090  11.6007440
  78.5181310  72.9346880  12.3831470  85.7348090  83.5236010   3.9051440
  85.1165360  83.9885460   3.3414160  86.2471340  84.2163490   4.3220950
  80.5979850  83.0511880  10.5835040  80.2649230  83.6780800  11.2256110
  80.7746530  83.5773760   9.8036710  89.1113760  76.8656960   8.0511380
  88.4069330  77.1541850   8.6314490  89.4725920  77.6757070   7.6910940
  79.0292330  75.1226660  10.4131990  79.3709140  75.9668710  10.1185860
  78.0908140  75.2710400  10.5297330  92.1800680  76.3111750   8.4420590
  91.2325590  76.3450730   8.5736020  92.5050670  77.1250700   8.8269950
  82.7120220  72.6108930   6.7376580  83.0195200  72.0555820   6.0212080
  81.7820920  72.7453390   6.5549570  87.6620720  83.2306060  10.3566650
  88.0789510  83.0166170   9.5220110  88.3860540  83.4878850  10.9275270
  85.1000980  80.6757760   3.4736700  84.1730260  80.6095140   3.7025170
  85.2525800  81.6137890   3.3591940  91.6082820  81.6293280  10.4482890
  90.7801450  81.6986370   9.9733020  92.2033300  82.2147590   9.9798720
  89.1298270  82.2378060   3.9771950  88.5110690  81.8997610   3.3298250
  89.1122720  81.5937820   4.6851140  88.5724830  78.4162600  11.3937760
  88.1596010  79.2416310  11.6477750  87.8400780  77.8307640  11.2014120
  80.7057620  81.2022500   6.2556430  80.3014620  80.4899750   5.7602330
  80.7920740  80.8575740   7.1444470  81.1739320  84.8890060   8.4195640
  80.8767610  84.2835530   7.7403420  82.1239140  84.9267370   8.3085000
  79.4186240  77.9765710  10.0355470  79.9700830  78.0861050   9.2608720
  79.9329750  78.3503310  10.7510700  80.2657750  84.6271750  15.0703440
  79.3686280  84.8511720  15.3176840  80.2910620  84.7506690  14.1214840
  79.0928970  81.4985070  13.6460810  78.9536740  82.3707870  14.0148210
  78.2110330  81.1557880  13.5008750  77.4062250  80.0967480   3.7563080
  77.2859850  80.8229570   3.1444350  77.0963140  79.3270390   3.2790990
  75.0447620  83.2682620   9.5631720  75.1228040  83.4031390   8.6187440
  75.6589300  82.5598510   9.7559840  92.0981400  77.4679180  15.2759880
  91.4825670  77.9758850  14.7475340  91.7777820  76.5677510  15.2185820
  75.1007140  84.3096790  12.1026180  75.2638180  83.8402150  11.2845550
  75.5659590  83.8020350  12.7675020  79.8725910  73.4402550   7.1386750
  79.4294060  74.2212090   6.8071270  80.4310900  73.7632440   7.8457690
  84.1595720  76.3071070  12.7422070  83.6975090  76.5154090  13.5542010
  83.7573830  75.4930420  12.4392740  89.1600230  77.5280020  13.8718730
  88.3093820  77.2285770  14.1927800  89.0002020  77.7722030  12.9602550
  86.2549940  79.0281770  15.9717520  86.5803350  78.1945520  15.6319750
  87.0430270  79.5510290  16.1195850  81.9101810  73.9849880   8.9976350
  82.2074140  74.8912710   8.9168370  82.4587370  73.4968660   8.3835920
  79.6640130  78.5636120   4.8668000  79.4381050  78.3473290   5.7714620
  78.8832660  78.9964580   4.5213970  86.8937890  78.5699490   3.4658650
  86.2946780  79.2935290   3.2822270  87.4417500  78.5076270   2.6835100
  82.1039340  79.4621700  15.5328270  82.0082940  78.5216430  15.3828670
  82.9471320  79.6836770  15.1376340  85.5002760  77.2063030   5.4961930
  85.8932330  77.5235230   4.6830620  85.8619610  76.3274910   5.6106450
  77.2349880  75.8735370  13.6862050  76.8413270  76.7210580  13.8934830
  76.5468280  75.2361740  13.8770690  83.8094930  75.9570340  16.7558790
  83.1193250  75.7642540  17.3904880  84.5527230  76.2404980  17.2883090
  74.5366930  73.7963830   7.7192130  74.2479980  74.3666690   8.4317110
  75.2812690  73.3168280   8.0823360  86.0857900  79.7968780   9.5912710
  85.3539020  80.3055590   9.9402810  85.6882240  78.9798760   9.2901490
  82.5235290  76.4722980   7.9965200  82.5271350  76.0312930   7.1469740
  83.4186410  76.7940310   8.1037020  78.3737670  76.3549470   6.9559410
  78.0337720  76.8324700   7.7126460  77.6114990  75.9014590   6.5960510
  86.5483810  75.2502460   9.0035650  86.5656550  75.7011110   9.8477500
  86.2999390  74.3508100   9.2169090  89.9754560  72.6634640  14.8422030
  90.3000330  71.9324300  15.3680010  90.0111070  72.3448280  13.9403020
  76.6746120  83.6848220  14.2621990  76.2900910  83.0441890  14.8604950
  76.9858310  84.3884340  14.8316720  82.8243260  80.5324760   9.7430610
  83.1913390  80.0583330  10.4891950  82.6348320  81.4066330  10.0838950
  75.6883750  75.2768450   5.8724080  75.4030670  74.9124120   6.7102700
  75.6262610  74.5448910   5.2587220  80.6142630  79.5733400  12.0614820
  80.3099700  80.4525380  12.2865180  81.5689090  79.6333190  12.0972260
  79.1424420  83.7794390   2.6581670  78.3686680  83.2392010   2.4980390
  79.8719050  83.2601000   2.3199430  89.9012400  82.7759750   8.4508060
  90.6211520  83.2715040   8.0604170  89.6994220  82.0977640   7.8061930
  85.3622340  74.1697710   2.5937450  84.5486950  73.6710880   2.5182760
  85.1684290  75.0095960   2.1773800  85.2831200  82.8468810  14.3377060
  85.2168510  81.9264480  14.0834650  84.6536340  82.9444250  15.0521700
  79.1861820  83.4474770   6.2960480  79.7040490  82.6443030   6.2417370
  78.7345840  83.3853910   7.1377310  76.6706360  80.4136140  13.2086180
  76.3121300  81.0789990  13.7959520  76.3760920  79.5819690  13.5798800
  79.8719480  80.8720380  16.0925730  79.5719620  81.0177560  15.1953550
  80.6430720  80.3125670  15.9999120  91.4259140  82.3096720  13.4349440
  90.7007330  82.9025500  13.2378830  91.9534600  82.3020260  12.6362810
  86.9558730  84.0356890   6.9333290  87.3082550  83.4385020   6.2734660
  86.0721060  83.7101120   7.1041540  82.3449220  81.8000610   3.9529060
  82.8012000  82.6105860   4.1789250  81.9937430  81.4823750   4.7847550
  78.2461000  72.1438260   4.4251580  78.1175630  72.1356160   5.3736500
  77.4223020  72.4821350   4.0742590  75.2454930  73.9029380  13.8858280
  74.5313450  74.1026300  14.4910890  75.6649970  73.1268950  14.2573080
  86.7393710  76.3951690  11.6359730  87.1074530  75.5746900  11.9639300
  85.8791910  76.4553580  12.0515380  90.1055740  75.3508630   2.4447290
  89.4768900  75.4554300   1.7305520  89.6107660  75.5705410   3.2341170
  82.0739770  77.6294580   3.8605170  81.3655920  78.0980920   4.3018780
  82.3584250  76.9716590   4.4950360  83.6995700  79.0491280  11.8597700
  84.1980950  79.5237100  12.5249550  83.8418650  78.1254800  12.0667730
  86.1055200  74.3545240   5.3000960  85.9822980  74.3731370   4.3510470
  87.0539760  74.4024180   5.4199360  90.9062560  75.2659240  12.7026090
  90.4036160  76.0064640  13.0419900  91.7219220  75.6543240  12.3862880
  89.1984570  80.5092420   6.1487450  88.2574710  80.5242650   6.3235140
  89.5128640  79.7228380   6.5947750  86.5150590  85.0658420  16.6319830
  85.9088750  85.0890020  15.8915580  86.2104700  84.3341460  17.1687080
  75.3983770  81.4452010  15.6280470  75.9022790  80.8659290  16.1996700
  74.6591190  81.7292240  16.1656840  82.4521710  82.8523000  15.1615990
  81.6867380  83.4208000  15.0770660  82.6337670  82.5599210  14.2684220
  89.5945060  84.5828330  15.7191010  90.3354530  84.9204090  15.2158470
  88.8317740  84.7520390  15.1660780  77.4306850  79.5881600  16.5230540
  77.4712190  79.2895470  17.4315770  78.2852350  79.9889210  16.3638060
  79.3712660  78.1673700  14.4905030  78.8409120  77.6764650  13.8628370
  80.0400730  78.5957900  13.9562960  88.2690720  82.6343160  14.2546220
  88.6831740  82.7888240  15.1036640  87.3341720  82.7598380  14.4172000
  88.7412890  79.9739320  16.2585370  89.3233660  79.2191640  16.1705850
  88.9174660  80.5046760  15.4816850  79.8584960  75.1336070  14.5702320
  79.7641830  74.5156820  13.8453190  79.2782350  75.8602360  14.3432230
  82.6246400  73.6909310  11.6029710  82.1763700  73.7133570  10.7575260
  81.9911600  73.2928330  12.2000010  83.0305950  82.5863640  12.2242150
  83.4494060  83.4296370  12.0518390  82.1114580  82.7235680  11.9948930
  85.3669850  80.3179820  13.6079990  85.4866060  79.7220960  14.3474830
  86.2263850  80.3549510  13.1881290  87.7057750  80.8717010  12.1842500
  87.1792970  81.3959630  11.5807640  88.0489090  81.5044400  12.8152230
  82.1338620  76.8601170  14.8655810  82.7238310  76.5517020  15.5533630
  81.3158860  76.3880920  15.0215710  86.9532050  76.4766980  15.0988830
  86.2647570  75.8148520  15.0338820  87.6738070  76.0305250  15.5437290
  91.9613170  82.3095340   1.7683000  92.7232080  82.8791990   1.8742690
  91.9767540  81.7422540   2.5391310  75.4617510  80.8333270   5.9990660
  74.8066350  80.5644910   5.3550360  76.2995460  80.7237750   5.5492640
  92.9673140  83.1645440   6.6124930  93.3381970  82.3812760   6.2060900
  93.6075070  83.8534540   6.4342230  91.9097680  80.5398700   3.9184950
  91.5341280  79.7726630   3.4866240  91.1800800  80.9221400   4.4059880
  76.4993440  81.2185840  10.5394000  76.8666480  81.1313240  11.4190020
  75.9304260  80.4552390  10.4400860  91.2997300  79.6870220  13.5524470
  91.0683390  79.4582970  12.6522420  91.5601850  80.6069770  13.5069360
  76.0509440  78.1294930  14.4452420  75.1565490  78.0961690  14.7846130
  76.5906990  78.3281720  15.2103670  89.7385370  74.9126650  16.3304170
  90.6155550  74.9210050  16.7138170  89.7506210  74.1757490  15.7196520
  91.1848640  78.7656190   7.2192190  91.7086120  78.2718840   6.5882360
  91.7708060  78.9006550   7.9639760  91.3638360  78.8496060  10.7411740
  90.4141070  78.8159600  10.8556730  91.5451370  79.7596170  10.5061510
  90.6748610  78.0229540   3.1584600  91.1707730  77.7900410   3.9433480
  90.4764680  77.1841380   2.7422240  76.5549150  72.4043260   8.7935640
  77.2025340  71.8540640   8.3530800  76.9750990  72.6586410   9.6151450
  92.1035770  76.6590490   5.6922280  91.9935050  76.5046530   6.6304550
  92.8643360  76.1311430   5.4497690  90.4501490  72.5984620  12.1505280
  91.0873710  73.2118760  12.5164470  90.5976380  72.6345280  11.2054510
  76.3081150  72.5598930  11.5360960  75.9595970  73.0162750  12.3019140
  75.9768850  71.6656060  11.6183390  83.8205970  73.7510810  15.0580380
  83.7594860  74.3432640  15.8075790  84.7606350  73.6436770  14.9130640
  86.4580530  73.4080870  14.6972670  87.0720940  73.7260160  14.0353750
  87.0030090  72.9229460  15.3168530  76.9801790  72.0875130  14.8111730
  77.5284780  71.9063180  14.0477840  77.0457100  71.2969240  15.3468040
  87.1988570  71.9713010  11.0241960  86.3248410  72.3048120  10.8214890
  87.0899320  71.4986190  11.8493830  88.1060550  74.1783880  12.4083680
  87.7773910  73.3635640  12.0285410  89.0542850  74.1353690  12.2849370
  84.9463390  72.8882850   9.9634870  84.1635180  73.3628350  10.2431630
  84.6526320  71.9837680   9.8548050  89.4984460  73.5905950   8.0083960
  89.9392550  73.5351050   7.1605560  89.2292050  74.5063960   8.0794140
  91.3623030  73.2221190   6.0192780  91.3011430  72.2782410   5.8723800
  92.1415060  73.3301280   6.5646240  76.2903800  73.1930330   2.4848590
  77.0483160  73.3059210   1.9112620  75.8280970  74.0299530   2.4392020
  82.8317610  75.3069600   5.4750900  82.0192120  74.9326490   5.1346780
  83.3359250  74.5514680   5.7772090  87.3342590  71.9712050   6.7133970
  87.9371960  72.5432260   7.1882490  86.5935580  72.5351490   6.4907870
  90.4777190  72.3733610   1.9874250  90.6727820  73.2717060   2.2541680
  89.6907060  72.1420690   2.4807200  80.8566790  73.4569520   4.0795950
  80.2269530  72.7556830   4.2466080  80.3171930  74.2173650   3.8629110
  80.9822350  72.7353500  16.5148440  80.7006620  73.2387100  15.7509260
  81.3642050  71.9375250  16.1490570  87.5837810  72.1507080  17.0928910
  87.4703260  72.4701690  17.9880430  88.4007550  72.5519590  16.7966190
  86.4895960  61.3956060  81.3281100  86.4090010  60.4810670  81.0572810
  86.0760380  61.8923130  80.6220810  84.6214000  63.1735080  83.2090370
  83.8456100  62.6935520  83.4988940  85.2726930  62.4940730  83.0346530
  78.6379830  63.4854890  84.0866130  77.8064710  63.2303600  84.4862640
  79.2460810  63.5565660  84.8224050  88.6421430  67.5795270  81.9889500
  88.1802960  66.8082510  82.3176670  89.4546980  67.6061340  82.4941950
  78.6181090  67.5194980  84.2824150  78.9209130  66.6292720  84.1034370
  79.3624680  68.0765200  84.0546400  77.0471780  58.4456780  77.8708520
  76.1588480  58.7872750  77.7688400  77.3312970  58.2457100  76.9789350
  75.0104790  61.0462430  83.7548220  75.5820900  60.2784630  83.7551860
  75.0106330  61.3451190  82.8454830  84.8684740  69.8653280  81.6093490
  84.2496180  70.3210780  81.0387930  85.7236520  70.0204740  81.2083190
  84.0622990  65.8492270  83.2160530  83.9931270  64.9082210  83.0549660
  84.8242850  65.9393680  83.7883100  76.2529660  56.4546790  85.5417150
  76.0732500  55.5572540  85.8219910  75.8509740  57.0018660  86.2164100
  85.0928160  58.6562650  83.4429460  85.4692980  57.7834530  83.3303130
  84.9947670  58.9921350  82.5519900  79.2233170  57.0288280  78.9046900
  79.3299920  57.9292010  79.2115660  78.3125530  56.9806250  78.6141550
  88.8752280  56.1513090  80.3757800  89.6961900  55.6609660  80.4183280
  88.9086360  56.7410750  81.1289640  76.8716330  58.9507290  84.1499490
  77.5526440  59.2145660  84.7686890  76.5564380  58.1108160  84.4837500
  81.0640900  59.9974650  83.2372080  81.5719120  60.4955620  83.8777100
  81.5954140  59.2209850  83.0611440  93.1651830  58.1679840  86.9401430
  92.4604000  58.5561550  86.4216540  93.4309750  58.8630130  87.5422360
  79.3477000  54.6373210  87.5035500  79.3495440  55.1545600  86.6981400
  78.5181310  54.1603390  87.4805430  85.7348090  64.7492520  79.0025400
  85.1165360  65.2141970  78.4388120  86.2471340  65.4420000  79.4194910
  80.5979850  64.2768390  85.6809000  80.2649230  64.9037310  86.3230070
  80.7746530  64.8030270  84.9010670  89.1113760  58.0913470  83.1485340
  88.4069330  58.3798360  83.7288450  89.4725920  58.9013580  82.7884900
  79.0292330  56.3483170  85.5105950  79.3709140  57.1925220  85.2159820
  78.0908140  56.4966910  85.6271290  79.8098950  66.2449190  87.4958180
  80.4272950  66.9200270  87.2142630  78.9492070  66.6537170  87.4045680
  75.1031290  65.4349050  76.3765030  74.7259270  65.9236150  75.6449930
  75.3604360  66.1074330  77.0071560  90.7276540  67.7088600  85.4112820
  90.0440060  68.3787710  85.4029490  91.2670830  67.9069250  84.6457680
  92.1800680  57.5368260  83.5394550  91.2325590  57.5707240  83.6709980
  92.5050670  58.3507210  83.9243910  82.7120220  53.8365440  81.8350540
  83.0195200  53.2812330  81.1186040  81.7820920  53.9709900  81.6523530
  88.2635280  69.5532730  84.1258000  88.2762440  69.1495020  83.2580260
  87.7110500  70.3280020  84.0219430  89.5580700  66.2748950  79.2148170
  89.4477030  65.3323280  79.3397590  89.5548950  66.6364590  80.1010930
  87.6620720  64.4562570  85.4540610  88.0789510  64.2422680  84.6194070
  88.3860540  64.7135360  86.0249230  85.1000980  61.9014270  78.5710660
  84.1730260  61.8351650  78.7999130  85.2525800  62.8394400  78.4565900
  85.0870060  58.1731270  75.5677820  84.1473730  58.3345230  75.6530280
  85.4053320  58.8916950  75.0213810  91.6082820  62.8549790  85.5456850
  90.7801450  62.9242880  85.0706980  92.2033300  63.4404100  85.0772680
  89.1298270  63.4634570  79.0745910  88.5110690  63.1254120  78.4272210
  89.1122720  62.8194330  79.7825100  88.5724830  59.6419110  86.4911720
  88.1596010  60.4672820  86.7451710  87.8400780  59.0564150  86.2988080
  80.7057620  62.4279010  81.3530390  80.3014620  61.7156260  80.8576290
  80.7920740  62.0832250  82.2418430  81.1739320  66.1146570  83.5169600
  80.8767610  65.5092040  82.8377380  82.1239140  66.1523880  83.4058960
  79.4186240  59.2022220  85.1329430  79.9700830  59.3117560  84.3582680
  79.9329750  59.5759820  85.8484660  89.2624930  69.6878440  87.1792700
  88.7855490  70.4950630  86.9865310  88.5786720  69.0356770  87.3318910
  87.3062970  62.7021380  76.0818660  87.7456250  61.8643810  75.9356480
  88.0191390  63.3350780  76.1682800  79.0928970  62.7241580  88.7434770
  78.9536740  63.5964380  89.1122170  78.2110330  62.3814390  88.5982710
  85.4158350  67.6417450  80.0499900  85.8554260  68.3841780  79.6355290
  85.3545240  67.8844020  80.9738860  90.8880110  53.9564190  74.3959700
  90.5752770  54.0491020  75.2958770  91.6492580  54.5345220  74.3457130
  77.4062250  61.3223990  78.8537040  77.2859850  62.0486080  78.2418310
  77.0963140  60.5526900  78.3764950  75.0447620  64.4939130  84.6605680
  75.1228040  64.6287900  83.7161400  75.6589300  63.7855020  84.8533800
  76.2895250  66.1939320  81.0711860  75.8823330  66.3353910  80.2165460
  77.1808260  65.9099480  80.8683070  86.1074130  70.3431230  87.9778910
  86.6218800  70.2539240  88.7801340  85.2643210  70.6890930  88.2706820
  88.0828530  70.6286570  77.4062910  87.9229670  70.3389510  78.3044740
  87.9175240  69.8526700  76.8708140  80.5616910  70.4085100  79.1834530
  80.3859390  69.4920640  78.9702330  79.7072650  70.7672390  79.4232330
  87.7854660  68.1374130  75.9660910  87.0919820  68.1351420  75.3063190
  88.5277520  67.7133450  75.5355080  87.3504590  69.7636840  80.0409400
  87.8061540  68.9826220  80.3548020  87.6897110  70.4743660  80.5850580
  75.1007140  65.5353300  87.2000140  75.2638180  65.0658660  86.3819510
  75.5659590  65.0276860  87.8648980  79.8725910  54.6659060  82.2360710
  79.4294060  55.4468600  81.9045230  80.4310900  54.9888950  82.9431650
  84.1595720  57.5327580  87.8396030  83.6975090  57.7410600  88.6515970
  83.7573830  56.7186930  87.5366700  82.9884730  54.2869760  77.1166540
  82.3638910  54.2829630  77.8419850  82.9014850  53.4200720  76.7202510
  81.9101810  55.2106390  84.0950310  82.2074140  56.1169220  84.0142330
  82.4587370  54.7225170  83.4809880  79.6640130  59.7892630  79.9641960
  79.4381050  59.5729800  80.8688580  78.8832660  60.2221090  79.6187930
  86.8937890  59.7956000  78.5632610  86.2946780  60.5191800  78.3796230
  87.4417500  59.7332780  77.7809060  85.5002760  58.4319540  80.5935890
  85.8932330  58.7491740  79.7804580  85.8619610  57.5531420  80.7080410
  77.2349880  57.0991880  88.7836010  76.8413270  57.9467090  88.9908790
  76.5468280  56.4618250  88.9744650  74.5366930  55.0220340  82.8166090
  74.2479980  55.5923200  83.5291070  75.2812690  54.5424790  83.1797320
  74.7237160  58.9640460  74.0268810  74.6411830  59.9071220  74.1683800
  74.3720220  58.8215370  73.1481160  86.0857900  61.0225290  84.6886670
  85.3539020  61.5312100  85.0376770  85.6882240  60.2055270  84.3875450
  82.5235290  57.6979490  83.0939160  82.5271350  57.2569440  82.2443700
  83.4186410  58.0196820  83.2010980  78.3737670  57.5805980  82.0533370
  78.0337720  58.0581210  82.8100420  77.6114990  57.1271100  81.6934470
  82.5855440  58.6991570  76.0845920  82.7068260  58.6578050  77.0331740
  82.2003950  59.5615720  75.9292650  86.5483810  56.4758970  84.1009610
  86.5656550  56.9267620  84.9451460  86.2999390  55.5764610  84.3143050
  81.5976940  61.0092710  75.4829220  81.0293840  60.5610960  74.8565130
  82.3065940  61.3685490  74.9494370  82.8243260  61.7581270  84.8404570
  83.1913390  61.2839840  85.5865910  82.6348320  62.6322840  85.1812910
  75.6883750  56.5024960  80.9698040  75.4030670  56.1380630  81.8076660
  75.6262610  55.7705420  80.3561180  80.6142630  60.7989910  87.1588780
  80.3099700  61.6781890  87.3839140  81.5689090  60.8589700  87.1946220
  79.1424420  65.0050900  77.7555630  78.3686680  64.4648520  77.5954350
  79.8719050  64.4857510  77.4173390  89.9012400  64.0016260  83.5482020
  90.6211520  64.4971550  83.1578130  89.6994220  63.3234150  82.9035890
  85.3622340  55.3954220  77.6911410  84.5486950  54.8967390  77.6156720
  85.1684290  56.2352470  77.2747760  88.0770730  59.7673870  75.9873570
  88.9650350  60.0791100  75.8124910  88.0475820  58.8946120  75.5954150
  79.1861820  64.6731280  81.3934440  79.7040490  63.8699540  81.3391330
  78.7345840  64.6110420  82.2351270  84.0731320  65.9397560  76.6661740
  84.4147020  66.6839790  76.1705060  83.2444030  66.2528680  77.0286570
  76.6706360  61.6392650  88.3060140  76.3121300  62.3046500  88.8933480
  76.3760920  60.8076200  88.6772760  90.3485000  61.0785710  75.4553430
  90.2648720  61.5099930  74.6049870  91.0679190  61.5384060  75.8880250
  91.4259140  63.5353230  88.5323400  90.7007330  64.1282010  88.3352790
  91.9534600  63.5276770  87.7336770  91.3772250  67.9327970  78.1835560
  90.7348410  67.2783590  78.4579280  90.9902910  68.3383060  77.4076230
  86.9558730  65.2613400  82.0307250  87.3082550  64.6641530  81.3708620
  86.0721060  64.9357630  82.2015500  83.0422010  66.0211090  79.4377660
  83.7293140  66.5680300  79.8185250  82.2554430  66.5651820  79.4727270
  75.1814410  61.6383910  74.9294740  76.0509260  61.9208710  75.2130660
  74.6904730  62.4519780  74.8143550  82.3449220  63.0257120  79.0503020
  82.8012000  63.8362370  79.2763210  81.9937430  62.7080260  79.8821510
  84.6481830  68.5363460  86.2795320  85.2924050  68.7422840  86.9568740
  85.0111270  67.7751860  85.8266170  78.2461000  53.3694770  79.5225540
  78.1175630  53.3612670  80.4710460  77.4223020  53.7077860  79.1716550
  85.9213910  66.5395810  84.9972770  86.5636140  65.8388970  85.1104940
  86.4463260  67.3194250  84.8169660  89.7669630  66.8244430  74.7211910
  89.5407210  66.1074870  75.3136550  89.3765830  66.5756870  73.8833660
  87.6951530  67.3390710  88.2008830  88.0307770  67.9257400  88.8786750
  86.7751870  67.2083420  88.4306620  75.5485660  70.8511290  75.4956370
  75.9083300  71.4500630  74.8413640  75.4078000  71.3971180  76.2691400
  89.3485880  64.7416370  76.3826070  89.0607580  65.2029060  77.1703950
  90.1438050  64.2814140  76.6510290  81.5654280  68.2342490  76.3130040
  81.5564380  68.9672180  75.6974550  80.6452640  67.9874070  76.4057000
  77.1660920  63.4557380  77.0576800  76.5588870  64.1956280  77.0672100
  77.6410270  63.5456740  76.2315000  86.7393710  57.6208200  86.7333690
  87.1074530  56.8003410  87.0613260  85.8791910  57.6810090  87.1489340
  90.1055740  56.5765140  77.5421250  89.4768900  56.6810810  76.8279480
  89.6107660  56.7961920  78.3315130  84.5513880  68.2970730  74.9755230
  84.6525860  68.0934720  74.0457210  83.6515620  68.0429010  75.1803010
  82.0739770  58.8551090  78.9579130  81.3655920  59.3237430  79.3992740
  82.3584250  58.1973100  79.5924320  83.6995700  60.2747790  86.9571660
  84.1980950  60.7493610  87.6223510  83.8418650  59.3511310  87.1641690
  86.1055200  55.5801750  80.3974920  85.9822980  55.5987880  79.4484430
  87.0539760  55.6280690  80.5173320  83.1931990  70.8157050  79.6702900
  83.4473490  70.7778440  78.7482270  82.2444470  70.6890380  79.6631150
  80.2774790  57.1636170  76.3329840  81.1265320  57.6006320  76.2670030
  79.9106060  57.4756430  77.1601900  90.9062560  56.4915750  87.8000050
  90.4036160  57.2321150  88.1393860  91.7219220  56.8799750  87.4836840
  89.1984570  61.7348930  81.2461410  88.2574710  61.7499160  81.4209100
  89.5128640  60.9484890  81.6921710  79.1766210  63.4168530  74.8065370
  79.9429480  63.3049890  75.3690800  79.2540900  62.7206500  74.1542140
  77.8712970  60.8493600  75.4898260  77.9516560  59.9021110  75.6015660
  78.7632720  61.1800480  75.5958920  91.2010150  68.9057780  82.9215670
  91.3257570  69.7288950  83.3939480  92.0675710  68.6948510  82.5739820
  78.6727680  70.9988990  82.5932800  79.4090160  70.4504450  82.8641370
  79.0568600  71.8645000  82.4538790  75.5573160  67.0662560  78.4674310
  74.6312940  67.3083700  78.4579720  76.0229590  67.8936820  78.3459060
  81.7829990  70.1719300  74.4158370  82.5758600  70.4608130  73.9640160
  81.2634340  69.7411470  73.7370850  90.8360160  69.3989430  75.8395110
  90.5501670  68.9854570  75.0249290  90.6379710  70.3277140  75.7195630
  82.3007390  65.3922710  74.2800720  82.1958030  64.7775060  75.0062100
  82.1331610  64.8688600  73.4963730  85.5410120  64.4542740  74.8842710
  84.9920220  64.9012040  75.5285450  86.1629380  63.9491990  75.4080380
  81.2085240  63.4133660  76.7808010  81.6301660  63.2473530  77.6239400
  81.3336080  62.6033890  76.2863150  83.7212880  62.4371270  74.0285110
  84.2418540  61.7220290  73.6626260  84.3681280  63.0757140  74.3285620
  82.6246400  54.9165820  86.7003670  82.1763700  54.9390080  85.8549220
  81.9911600  54.5184840  87.2973970  83.0305950  63.8120150  87.3216110
  83.4494060  64.6552880  87.1492350  82.1114580  63.9492190  87.0922890
  87.7057750  62.0973520  87.2816460  87.1792970  62.6216140  86.6781600
  88.0489090  62.7300910  87.9126190  80.1044140  59.4866890  73.7266170
  79.9033200  58.6234250  74.0879510  79.9336190  59.4000250  72.7887770
  80.8813370  70.1173160  88.4373840  80.3434460  70.8419220  88.1182540
  81.1347330  69.6403500  87.6471180  87.5832450  54.2975120  76.2553050
  87.8634740  53.4543020  76.6112470  86.8098180  54.5298230  76.7691800
  78.9026940  56.5867510  73.7144050  79.2052840  56.5934940  72.8063200
  79.6421530  56.2365370  74.2111710  83.7375580  71.3524370  88.6960490
  83.6634280  72.2559510  89.0032860  82.8354420  71.0336270  88.6682560
  82.1211870  55.5302130  74.7000250  81.7733870  54.8526120  74.1202700
  82.3224640  55.0691640  75.5143640  84.2860910  70.5182880  76.3186850
  85.1811700  70.8567850  76.3405610  84.3178540  69.7962290  75.6911130
  77.9257070  65.8909930  74.5473850  78.3631940  66.4339600  75.2031430
  78.4104800  65.0656880  74.5570190  75.1402870  68.6798960  81.9994110
  75.4705880  67.8120020  81.7672750  75.5693870  68.8857480  82.8299070
  79.7364790  67.0107970  79.6596080  79.4360330  66.8872940  80.5599990
  79.6302280  66.1516560  79.2511810  75.6293080  69.5469550  84.7375740
  75.1924070  69.7270350  85.5699890  76.1970760  70.3044170  84.5957460
  92.5056710  66.7904370  74.3622760  91.6749670  66.8581020  74.8329990
  92.6828540  67.6808490  74.0589620  91.9613170  63.5351850  76.8656960
  92.7232080  64.1048500  76.9716650  91.9767540  62.9679050  77.6365270
  75.4617510  62.0589780  81.0964620  74.8066350  61.7901420  80.4524320
  76.2995460  61.9494260  80.6466600  92.9673140  64.3901950  81.7098890
  93.3381970  63.6069270  81.3034860  93.6075070  65.0791050  81.5316190
  89.9506900  65.7738530  87.1229210  89.1366740  66.2035690  87.3855000
  90.3581100  66.3856940  86.5098260  92.0132340  63.8286220  74.0229480
  92.2881180  64.7365100  73.8948700  91.8243080  63.7648750  74.9591470
  88.4107950  56.8531070  75.3183110  88.8292830  56.6662050  74.4779770
  88.1044010  56.0010120  75.6286040  91.9097680  61.7655210  79.0158910
  91.5341280  60.9983140  78.5840200  91.1800800  62.1477910  79.5033840
  76.4993440  62.4442350  85.6367960  76.8666480  62.3569750  86.5163980
  75.9304260  61.6808900  85.5374820  91.2997300  60.9126730  88.6498430
  91.0683390  60.6839480  87.7496380  91.5601850  61.8326280  88.6043320
  74.6755590  59.2688710  77.0389950  73.7719670  59.5318910  76.8641610
  75.1596210  59.5399880  76.2589910  91.1848640  59.9912700  82.3166150
  91.7086120  59.4975350  81.6856320  91.7708060  60.1263060  83.0613720
  91.3638360  60.0752570  85.8385700  90.4141070  60.0416110  85.9530690
  91.5451370  60.9852680  85.6035470  77.2182800  58.3254250  74.9484330
  77.9274500  57.9037470  74.4631610  76.5022740  58.3929480  74.3167680
  76.8656960  54.3793580  73.9886980  77.5885090  54.9202520  74.3068200
  77.1381480  54.1057000  73.1128520  90.6748610  59.2486050  78.2558560
  91.1707730  59.0156920  79.0407440  90.4764680  58.4097890  77.8396200
  76.5549150  53.6299770  83.8909600  77.2025340  53.0797150  83.4504760
  76.9750990  53.8842920  84.7125410  92.1035770  57.8847000  80.7896240
  91.9935050  57.7303040  81.7278510  92.8643360  57.3567940  80.5471650
  90.4501490  53.8241130  87.2479240  91.0873710  54.4375270  87.6138430
  90.5976380  53.8601790  86.3028470  92.9926040  55.7154920  74.0302380
  93.9175350  55.5836100  73.8220670  92.9701830  55.7947740  74.9838830
  93.0664530  56.4865580  76.6559090  92.2716030  56.4210700  77.1852000
  93.2707810  57.4216220  76.6444440  90.0082950  70.5257130  80.6497480
  90.6042020  70.2041700  79.9731900  90.2661100  70.0528950  81.4410750
  76.3081150  53.7855440  86.6334920  75.9595970  54.2419260  87.3993100
  75.9768850  52.8912570  86.7157350  81.6151550  68.5134630  86.3997830
  81.3742910  68.7809190  85.5128350  82.5554190  68.6840360  86.4548690
  92.8755710  70.5329010  87.2008470  92.3813990  70.9297880  86.4835600
  92.2669000  69.9078220  87.5945750  77.7533550  69.9037290  87.9185890
  77.1593870  69.7721990  88.6575930  77.7457390  69.0675430  87.4527990
  87.1988570  53.1969520  86.1215920  86.3248410  53.5304630  85.9188850
  87.0899320  52.7242700  86.9467790  88.1060550  55.4040390  87.5057640
  87.7773910  54.5892150  87.1259370  89.0542850  55.3610200  87.3823330
  90.5595160  71.1752430  84.4795210  90.0998130  71.9268240  84.1053230
  89.9307620  70.4558900  84.4210010  77.3845780  67.2695670  86.8693930
  76.6579840  66.6500960  86.8019880  77.4454930  67.6636280  85.9992010
  80.9890880  69.4840670  83.6543340  81.5055900  68.8728030  83.1291600
  81.6388260  69.9869450  84.1454350  83.7286380  70.3749160  84.4812320
  84.0164190  70.1203460  83.6045330  84.2409600  69.8226520  85.0717890
  84.9463390  54.1139360  85.0608830  84.1635180  54.5884860  85.3405590
  84.6526320  53.2094190  84.9522010  89.4984460  54.8162460  83.1057920
  89.9392550  54.7607560  82.2579520  89.2292050  55.7320470  83.1768100
  91.3623030  54.4477700  81.1166740  91.3011430  53.5038920  80.9697760
  92.1415060  54.5557790  81.6620200  75.6675780  70.5870060  80.0790690
  75.4997820  69.9540740  80.7772580  74.8010290  70.7929460  79.7284880
  76.2903800  54.4186840  77.5822550  77.0483160  54.5315720  77.0086580
  75.8280970  55.2556040  77.5365980  82.8317610  56.5326110  80.5724860
  82.0192120  56.1583000  80.2320740  83.3359250  55.7771190  80.8746050
  87.3342590  53.1968560  81.8107930  87.9371960  53.7688770  82.2856450
  86.5935580  53.7608000  81.5881830  90.4777190  53.5990120  77.0848210
  90.6727820  54.4973570  77.3515640  89.6907060  53.3677200  77.5781160
  77.2738480  69.2803290  77.5240830  76.7486100  69.6611320  76.8202790
  77.1983060  69.9054060  78.2450540  78.6628950  54.9450890  76.1224520
  79.1921710  54.1580690  75.9932470  79.2957270  55.6242080  76.3560050
  80.8566790  54.6826030  79.1769910  80.2269530  53.9813340  79.3440040
  80.3171930  55.4430160  78.9603070  92.0303800  70.8390830  78.8454770
  92.2055990  70.1528570  78.2015690  91.3325370  71.3637880  78.4531440
  79.8731450  71.2285670  76.3990080  80.6050270  70.9444950  75.8513970
  80.1325120  70.9898950  77.2889460  79.0346240  67.3450400  76.4036410
  78.4055120  67.8135500  76.9522240  79.1494070  66.4999620  76.8382600
  86.4895960  61.3956060  62.5537610  86.4090010  60.4810670  62.2829320
  86.0760380  61.8923130  61.8477320  84.6214000  63.1735080  64.4346880
  83.8456100  62.6935520  64.7245450  85.2726930  62.4940730  64.2603040
  78.6379830  63.4854890  65.3122640  77.8064710  63.2303600  65.7119150
  79.2460810  63.5565660  66.0480560  88.6421430  67.5795270  63.2146010
  88.1802960  66.8082510  63.5433180  89.4546980  67.6061340  63.7198460
  78.6181090  67.5194980  65.5080660  78.9209130  66.6292720  65.3290880
  79.3624680  68.0765200  65.2802910  75.0104790  61.0462430  64.9804730
  75.5820900  60.2784630  64.9808370  75.0106330  61.3451190  64.0711340
  84.8684740  69.8653280  62.8350000  84.2496180  70.3210780  62.2644440
  85.7236520  70.0204740  62.4339700  84.0622990  65.8492270  64.4417040
  83.9931270  64.9082210  64.2806170  84.8242850  65.9393680  65.0139610
  76.2529660  56.4546790  66.7673660  76.0732500  55.5572540  67.0476420
  75.8509740  57.0018660  67.4420610  85.0928160  58.6562650  64.6685970
  85.4692980  57.7834530  64.5559640  84.9947670  58.9921350  63.7776410
  88.8752280  56.1513090  61.6014310  89.6961900  55.6609660  61.6439790
  88.9086360  56.7410750  62.3546150  76.8716330  58.9507290  65.3756000
  77.5526440  59.2145660  65.9943400  76.5564380  58.1108160  65.7094010
  81.0640900  59.9974650  64.4628590  81.5719120  60.4955620  65.1033610
  81.5954140  59.2209850  64.2867950  93.1651830  58.1679840  68.1657940
  92.4604000  58.5561550  67.6473050  93.4309750  58.8630130  68.7678870
  79.3477000  54.6373210  68.7292010  79.3495440  55.1545600  67.9237910
  78.5181310  54.1603390  68.7061940  85.7348090  64.7492520  60.2281910
  85.1165360  65.2141970  59.6644630  86.2471340  65.4420000  60.6451420
  80.5979850  64.2768390  66.9065510  80.2649230  64.9037310  67.5486580
  80.7746530  64.8030270  66.1267180  89.1113760  58.0913470  64.3741850
  88.4069330  58.3798360  64.9544960  89.4725920  58.9013580  64.0141410
  79.0292330  56.3483170  66.7362460  79.3709140  57.1925220  66.4416330
  78.0908140  56.4966910  66.8527800  79.8098950  66.2449190  68.7214690
  80.4272950  66.9200270  68.4399140  78.9492070  66.6537170  68.6302190
  75.1031290  65.4349050  57.6021540  74.7259270  65.9236150  56.8706440
  75.3604360  66.1074330  58.2328070  90.7276540  67.7088600  66.6369330
  90.0440060  68.3787710  66.6286000  91.2670830  67.9069250  65.8714190
  92.1800680  57.5368260  64.7651060  91.2325590  57.5707240  64.8966490
  92.5050670  58.3507210  65.1500420  82.7120220  53.8365440  63.0607050
  83.0195200  53.2812330  62.3442550  81.7820920  53.9709900  62.8780040
  88.2635280  69.5532730  65.3514510  88.2762440  69.1495020  64.4836770
  87.7110500  70.3280020  65.2475940  89.5580700  66.2748950  60.4404680
  89.4477030  65.3323280  60.5654100  89.5548950  66.6364590  61.3267440
  87.6620720  64.4562570  66.6797120  88.0789510  64.2422680  65.8450580
  88.3860540  64.7135360  67.2505740  85.1000980  61.9014270  59.7967170
  84.1730260  61.8351650  60.0255640  85.2525800  62.8394400  59.6822410
  85.0870060  58.1731270  56.7934330  84.1473730  58.3345230  56.8786790
  85.4053320  58.8916950  56.2470320  91.6082820  62.8549790  66.7713360
  90.7801450  62.9242880  66.2963490  92.2033300  63.4404100  66.3029190
  89.1298270  63.4634570  60.3002420  88.5110690  63.1254120  59.6528720
  89.1122720  62.8194330  61.0081610  88.5724830  59.6419110  67.7168230
  88.1596010  60.4672820  67.9708220  87.8400780  59.0564150  67.5244590
  80.7057620  62.4279010  62.5786900  80.3014620  61.7156260  62.0832800
  80.7920740  62.0832250  63.4674940  81.1739320  66.1146570  64.7426110
  80.8767610  65.5092040  64.0633890  82.1239140  66.1523880  64.6315470
  79.4186240  59.2022220  66.3585940  79.9700830  59.3117560  65.5839190
  79.9329750  59.5759820  67.0741170  89.2624930  69.6878440  68.4049210
  88.7855490  70.4950630  68.2121820  88.5786720  69.0356770  68.5575420
  80.2657750  65.8528260  71.3933910  79.3686280  66.0768230  71.6407310
  80.2910620  65.9763200  70.4445310  87.3062970  62.7021380  57.3075170
  87.7456250  61.8643810  57.1612990  88.0191390  63.3350780  57.3939310
  79.0928970  62.7241580  69.9691280  78.9536740  63.5964380  70.3378680
  78.2110330  62.3814390  69.8239220  85.4158350  67.6417450  61.2756410
  85.8554260  68.3841780  60.8611800  85.3545240  67.8844020  62.1995370
  80.8909320  68.6663280  72.1776430  80.8624750  69.0706230  71.3104860
  80.7274290  67.7373640  72.0148030  90.8880110  53.9564190  55.6216210
  90.5752770  54.0491020  56.5215280  91.6492580  54.5345220  55.5713640
  92.8424140  69.4490380  73.4740600  93.3183860  69.9273270  74.1529680
  93.4631300  69.3807870  72.7486100  75.0447620  64.4939130  65.8862190
  75.1228040  64.6287900  64.9417910  75.6589300  63.7855020  66.0790310
  76.2895250  66.1939320  62.2968370  75.8823330  66.3353910  61.4421970
  77.1808260  65.9099480  62.0939580  92.2457390  66.6403230  70.6340610
  92.3720450  66.4015110  69.7157790  92.2878770  65.8087770  71.1062690
  86.1074130  70.3431230  69.2035420  86.6218800  70.2539240  70.0057850
  85.2643210  70.6890930  69.4963330  88.0828530  70.6286570  58.6319420
  87.9229670  70.3389510  59.5301250  87.9175240  69.8526700  58.0964650
  80.5616910  70.4085100  60.4091040  80.3859390  69.4920640  60.1958840
  79.7072650  70.7672390  60.6488840  87.7854660  68.1374130  57.1917420
  87.0919820  68.1351420  56.5319700  88.5277520  67.7133450  56.7611590
  87.3504590  69.7636840  61.2665910  87.8061540  68.9826220  61.5804530
  87.6897110  70.4743660  61.8107090  92.0981400  58.6935690  71.5990350
  91.4825670  59.2015360  71.0705810  91.7777820  57.7934020  71.5416290
  75.1007140  65.5353300  68.4256650  75.2638180  65.0658660  67.6076020
  75.5659590  65.0276860  69.0905490  79.8725910  54.6659060  63.4617220
  79.4294060  55.4468600  63.1301740  80.4310900  54.9888950  64.1688160
  84.1595720  57.5327580  69.0652540  83.6975090  57.7410600  69.8772480
  83.7573830  56.7186930  68.7623210  89.1600230  58.7536530  70.1949200
  88.3093820  58.4542280  70.5158270  89.0002020  58.9978540  69.2833020
  86.2549940  60.2538280  72.2947990  86.5803350  59.4202030  71.9550220
  87.0430270  60.7766800  72.4426320  82.9884730  54.2869760  58.3423050
  82.3638910  54.2829630  59.0676360  82.9014850  53.4200720  57.9459020
  81.9101810  55.2106390  65.3206820  82.2074140  56.1169220  65.2398840
  82.4587370  54.7225170  64.7066390  86.8937890  59.7956000  59.7889120
  86.2946780  60.5191800  59.6052740  87.4417500  59.7332780  59.0065570
  82.1039340  60.6878210  71.8558740  82.0082940  59.7472940  71.7059140
  82.9471320  60.9093280  71.4606810  85.5002760  58.4319540  61.8192400
  85.8932330  58.7491740  61.0061090  85.8619610  57.5531420  61.9336920
  77.2349880  57.0991880  70.0092520  76.8413270  57.9467090  70.2165300
  76.5468280  56.4618250  70.2001160  83.8094930  57.1826850  73.0789260
  83.1193250  56.9899050  73.7135350  84.5527230  57.4661490  73.6113560
  86.0857900  61.0225290  65.9143180  85.3539020  61.5312100  66.2633280
  85.6882240  60.2055270  65.6131960  82.5235290  57.6979490  64.3195670
  82.5271350  57.2569440  63.4700210  83.4186410  58.0196820  64.4267490
  82.5855440  58.6991570  57.3102430  82.7068260  58.6578050  58.2588250
  82.2003950  59.5615720  57.1549160  86.5483810  56.4758970  65.3266120
  86.5656550  56.9267620  66.1707970  86.2999390  55.5764610  65.5399560
  81.5976940  61.0092710  56.7085730  81.0293840  60.5610960  56.0821640
  82.3065940  61.3685490  56.1750880  89.9754560  53.8891150  71.1652500
  90.3000330  53.1580810  71.6910480  90.0111070  53.5704790  70.2633490
  76.6746120  64.9104730  70.5852460  76.2900910  64.2698400  71.1835420
  76.9858310  65.6140850  71.1547190  82.8243260  61.7581270  66.0661080
  83.1913390  61.2839840  66.8122420  82.6348320  62.6322840  66.4069420
  80.6142630  60.7989910  68.3845290  80.3099700  61.6781890  68.6095650
  81.5689090  60.8589700  68.4202730  79.1424420  65.0050900  58.9812140
  78.3686680  64.4648520  58.8210860  79.8719050  64.4857510  58.6429900
  89.9012400  64.0016260  64.7738530  90.6211520  64.4971550  64.3834640
  89.6994220  63.3234150  64.1292400  85.3622340  55.3954220  58.9167920
  84.5486950  54.8967390  58.8413230  85.1684290  56.2352470  58.5004270
  85.2831200  64.0725320  70.6607530  85.2168510  63.1520990  70.4065120
  84.6536340  64.1700760  71.3752170  88.0770730  59.7673870  57.2130080
  88.9650350  60.0791100  57.0381420  88.0475820  58.8946120  56.8210660
  79.1861820  64.6731280  62.6190950  79.7040490  63.8699540  62.5647840
  78.7345840  64.6110420  63.4607780  84.0731320  65.9397560  57.8918250
  84.4147020  66.6839790  57.3961570  83.2444030  66.2528680  58.2543080
  76.6706360  61.6392650  69.5316650  76.3121300  62.3046500  70.1189990
  76.3760920  60.8076200  69.9029270  79.8719480  62.0976890  72.4156200
  79.5719620  62.2434070  71.5184020  80.6430720  61.5382180  72.3229590
  85.2147930  66.8945890  70.4111330  85.2292470  65.9626850  70.1930240
  84.5073030  66.9805650  71.0501100  90.3485000  61.0785710  56.6809940
  90.2648720  61.5099930  55.8306380  91.0679190  61.5384060  57.1136760
  91.4259140  63.5353230  69.7579910  90.7007330  64.1282010  69.5609300
  91.9534600  63.5276770  68.9593280  91.3772250  67.9327970  59.4092070
  90.7348410  67.2783590  59.6835790  90.9902910  68.3383060  58.6332740
  86.9558730  65.2613400  63.2563760  87.3082550  64.6641530  62.5965130
  86.0721060  64.9357630  63.4272010  83.0422010  66.0211090  60.6634170
  83.7293140  66.5680300  61.0441760  82.2554430  66.5651820  60.6983780
  82.3449220  63.0257120  60.2759530  82.8012000  63.8362370  60.5019720
  81.9937430  62.7080260  61.1078020  84.6481830  68.5363460  67.5051830
  85.2924050  68.7422840  68.1825250  85.0111270  67.7751860  67.0522680
  85.9213910  66.5395810  66.2229280  86.5636140  65.8388970  66.3361450
  86.4463260  67.3194250  66.0426170  89.7669630  66.8244430  55.9468420
  89.5407210  66.1074870  56.5393060  89.3765830  66.5756870  55.1090170
  87.6951530  67.3390710  69.4265340  88.0307770  67.9257400  70.1043260
  86.7751870  67.2083420  69.6563130  75.5485660  70.8511290  56.7212880
  75.9083300  71.4500630  56.0670150  75.4078000  71.3971180  57.4947910
  75.2454930  55.1285890  70.2088750  74.5313450  55.3282810  70.8141360
  75.6649970  54.3525460  70.5803550  89.3485880  64.7416370  57.6082580
  89.0607580  65.2029060  58.3960460  90.1438050  64.2814140  57.8766800
  75.5327520  69.1166150  71.1955280  75.6418640  68.1760890  71.0550670
  74.8808080  69.3820900  70.5469010  83.5240110  67.3882040  72.5953400
  83.2036980  66.6691280  73.1399090  82.8498470  68.0637110  72.6689460
  81.5654280  68.2342490  57.5386550  81.5564380  68.9672180  56.9231060
  80.6452640  67.9874070  57.6313510  77.1660920  63.4557380  58.2833310
  76.5588870  64.1956280  58.2928610  77.6410270  63.5456740  57.4571510
  86.7393710  57.6208200  67.9590200  87.1074530  56.8003410  68.2869770
  85.8791910  57.6810090  68.3745850  90.1055740  56.5765140  58.7677760
  89.4768900  56.6810810  58.0535990  89.6107660  56.7961920  59.5571640
  84.5513880  68.2970730  56.2011740  84.6525860  68.0934720  55.2713720
  83.6515620  68.0429010  56.4059520  82.0739770  58.8551090  60.1835640
  81.3655920  59.3237430  60.6249250  82.3584250  58.1973100  60.8180830
  83.6995700  60.2747790  68.1828170  84.1980950  60.7493610  68.8480020
  83.8418650  59.3511310  68.3898200  86.1055200  55.5801750  61.6231430
  85.9822980  55.5987880  60.6740940  87.0539760  55.6280690  61.7429830
  83.1931990  70.8157050  60.8959410  83.4473490  70.7778440  59.9738780
  82.2444470  70.6890380  60.8887660  80.2774790  57.1636170  57.5586350
  81.1265320  57.6006320  57.4926540  79.9106060  57.4756430  58.3858410
  90.9062560  56.4915750  69.0256560  90.4036160  57.2321150  69.3650370
  91.7219220  56.8799750  68.7093350  89.1984570  61.7348930  62.4717920
  88.2574710  61.7499160  62.6465610  89.5128640  60.9484890  62.9178220
  79.1766210  63.4168530  56.0321880  79.9429480  63.3049890  56.5947310
  79.2540900  62.7206500  55.3798650  91.2010150  68.9057780  64.1472180
  91.3257570  69.7288950  64.6195990  92.0675710  68.6948510  63.7996330
  78.6727680  70.9988990  63.8189310  79.4090160  70.4504450  64.0897880
  79.0568600  71.8645000  63.6795300  75.5573160  67.0662560  59.6930820
  74.6312940  67.3083700  59.6836230  76.0229590  67.8936820  59.5715570
  77.6785960  70.1835060  73.0074890  78.4798690  70.5047110  73.4210290
  77.1637780  69.8230640  73.7294800  81.7829990  70.1719300  55.6414880
  82.5758600  70.4608130  55.1896670  81.2634340  69.7411470  54.9627360
  86.5150590  66.2914930  72.9550300  85.9088750  66.3146530  72.2146050
  86.2104700  65.5597970  73.4917550  87.9450960  70.0195220  71.5659710
  88.8972710  69.9353240  71.5159950  87.7979180  70.6836930  72.2393500
  90.8360160  69.3989430  57.0651620  90.5501670  68.9854570  56.2505800
  90.6379710  70.3277140  56.9452140  75.3983770  62.6708520  71.9510940
  75.9022790  62.0915800  72.5227170  74.6591190  62.9548750  72.4887310
  82.3007390  65.3922710  55.5057230  82.1958030  64.7775060  56.2318610
  82.1331610  64.8688600  54.7220240  82.4521710  64.0779510  71.4846460
  81.6867380  64.6464510  71.4001130  82.6337670  63.7855720  70.5914690
  85.5410120  64.4542740  56.1099220  84.9920220  64.9012040  56.7541960
  86.1629380  63.9491990  56.6336890  89.5945060  65.8084840  72.0421480
  90.3354530  66.1460600  71.5388940  88.8317740  65.9776900  71.4891250
  77.4306850  60.8138110  72.8461010  77.4712190  60.5151980  73.7546240
  78.2852350  61.2145720  72.6868530  81.2085240  63.4133660  58.0064520
  81.6301660  63.2473530  58.8495910  81.3336080  62.6033890  57.5119660
  79.3712660  59.3930210  70.8135500  78.8409120  58.9021160  70.1858840
  80.0400730  59.8214410  70.2793430  83.7212880  62.4371270  55.2541620
  84.2418540  61.7220290  54.8882770  84.3681280  63.0757140  55.5542130
  88.2690720  63.8599670  70.5776690  88.6831740  64.0144750  71.4267110
  87.3341720  63.9854890  70.7402470  88.7412890  61.1995830  72.5815840
  89.3233660  60.4448150  72.4936320  88.9174660  61.7303270  71.8047320
  79.8584960  56.3592580  70.8932790  79.7641830  55.7413330  70.1683660
  79.2782350  57.0858870  70.6662700  82.6246400  54.9165820  67.9260180
  82.1763700  54.9390080  67.0805730  81.9911600  54.5184840  68.5230480
  83.0305950  63.8120150  68.5472620  83.4494060  64.6552880  68.3748860
  82.1114580  63.9492190  68.3179400  85.3669850  61.5436330  69.9310460
  85.4866060  60.9477470  70.6705300  86.2263850  61.5806020  69.5111760
  87.7057750  62.0973520  68.5072970  87.1792970  62.6216140  67.9038110
  88.0489090  62.7300910  69.1382700  80.8813370  70.1173160  69.6630350
  80.3434460  70.8419220  69.3439050  81.1347330  69.6403500  68.8727690
  82.1338620  58.0857680  71.1886280  82.7238310  57.7773530  71.8764100
  81.3158860  57.6137430  71.3446180  86.9532050  57.7023490  71.4219300
  86.2647570  57.0405030  71.3569290  87.6738070  57.2561760  71.8667760
  87.5832450  54.2975120  57.4809560  87.8634740  53.4543020  57.8368980
  86.8098180  54.5298230  57.9948310  83.7375580  71.3524370  69.9217000
  83.6634280  72.2559510  70.2289370  82.8354420  71.0336270  69.8939070
  82.1211870  55.5302130  55.9256760  81.7733870  54.8526120  55.3459210
  82.3224640  55.0691640  56.7400150  84.2860910  70.5182880  57.5443360
  85.1811700  70.8567850  57.5662120  84.3178540  69.7962290  56.9167640
  77.9257070  65.8909930  55.7730360  78.3631940  66.4339600  56.4287940
  78.4104800  65.0656880  55.7826700  75.1402870  68.6798960  63.2250620
  75.4705880  67.8120020  62.9929260  75.5693870  68.8857480  64.0555580
  79.7364790  67.0107970  60.8852590  79.4360330  66.8872940  61.7856500
  79.6302280  66.1516560  60.4768320  75.6293080  69.5469550  65.9632250
  75.1924070  69.7270350  66.7956400  76.1970760  70.3044170  65.8213970
  91.2655260  69.0486550  70.2509560  90.6657250  69.1079110  69.5073480
  91.3949160  68.1091530  70.3806410  92.5056710  66.7904370  55.5879270
  91.6749670  66.8581020  56.0586500  92.6828540  67.6808490  55.2846130
  91.9613170  63.5351850  58.0913470  92.7232080  64.1048500  58.1973160
  91.9767540  62.9679050  58.8621780  92.9673140  64.3901950  62.9355400
  93.3381970  63.6069270  62.5291370  93.6075070  65.0791050  62.7572700
  89.9506900  65.7738530  68.3485720  89.1366740  66.2035690  68.6111510
  90.3581100  66.3856940  67.7354770  92.0132340  63.8286220  55.2485990
  92.2881180  64.7365100  55.1205210  91.8243080  63.7648750  56.1847980
  88.4107950  56.8531070  56.5439620  88.8292830  56.6662050  55.7036280
  88.1044010  56.0010120  56.8542550  91.9097680  61.7655210  60.2415420
  91.5341280  60.9983140  59.8096710  91.1800800  62.1477910  60.7290350
  76.4993440  62.4442350  66.8624470  76.8666480  62.3569750  67.7420490
  75.9304260  61.6808900  66.7631330  91.2997300  60.9126730  69.8754940
  91.0683390  60.6839480  68.9752890  91.5601850  61.8326280  69.8299830
  76.0509440  59.3551440  70.7682890  75.1565490  59.3218200  71.1076600
  76.5906990  59.5538230  71.5334140  89.7385370  56.1383160  72.6534640
  90.6155550  56.1466560  73.0368640  89.7506210  55.4014000  72.0426990
  91.1848640  59.9912700  63.5422660  91.7086120  59.4975350  62.9112830
  91.7708060  60.1263060  64.2870230  91.3638360  60.0752570  67.0642210
  90.4141070  60.0416110  67.1787200  91.5451370  60.9852680  66.8291980
  90.6748610  59.2486050  59.4815070  91.1707730  59.0156920  60.2663950
  90.4764680  58.4097890  59.0652710  92.1035770  57.8847000  62.0152750
  91.9935050  57.7303040  62.9535020  92.8643360  57.3567940  61.7728160
  90.4501490  53.8241130  68.4735750  91.0873710  54.4375270  68.8394940
  90.5976380  53.8601790  67.5284980  92.9926040  55.7154920  55.2558890
  93.9175350  55.5836100  55.0477180  92.9701830  55.7947740  56.2095340
  93.0664530  56.4865580  57.8815600  92.2716030  56.4210700  58.4108510
  93.2707810  57.4216220  57.8700950  90.0082950  70.5257130  61.8753990
  90.6042020  70.2041700  61.1988410  90.2661100  70.0528950  62.6667260
  76.3081150  53.7855440  67.8591430  75.9595970  54.2419260  68.6249610
  75.9768850  52.8912570  67.9413860  77.9145520  66.9575040  72.0244620
  77.8715150  66.5867950  72.9059080  78.0456530  67.8952610  72.1646440
  81.6151550  68.5134630  67.6254340  81.3742910  68.7809190  66.7384860
  82.5554190  68.6840360  67.6805200  83.8205970  54.9767320  71.3810850
  83.7594860  55.5689150  72.1306260  84.7606350  54.8693280  71.2361110
  86.4580530  54.6337380  71.0203140  87.0720940  54.9516670  70.3584220
  87.0030090  54.1485970  71.6399000  92.8755710  70.5329010  68.4264980
  92.3813990  70.9297880  67.7092110  92.2669000  69.9078220  68.8202260
  76.9801790  53.3131640  71.1342200  77.5284780  53.1319690  70.3708310
  77.0457100  52.5225750  71.6698510  77.7533550  69.9037290  69.1442400
  77.1593870  69.7721990  69.8832440  77.7457390  69.0675430  68.6784500
  87.1988570  53.1969520  67.3472430  86.3248410  53.5304630  67.1445360
  87.0899320  52.7242700  68.1724300  88.1060550  55.4040390  68.7314150
  87.7773910  54.5892150  68.3515880  89.0542850  55.3610200  68.6079840
  90.5595160  71.1752430  65.7051720  90.0998130  71.9268240  65.3309740
  89.9307620  70.4558900  65.6466520  77.3845780  67.2695670  68.0950440
  76.6579840  66.6500960  68.0276390  77.4454930  67.6636280  67.2248520
  80.9890880  69.4840670  64.8799850  81.5055900  68.8728030  64.3548110
  81.6388260  69.9869450  65.3710860  83.7286380  70.3749160  65.7068830
  84.0164190  70.1203460  64.8301840  84.2409600  69.8226520  66.2974400
  84.9463390  54.1139360  66.2865340  84.1635180  54.5884860  66.5662100
  84.6526320  53.2094190  66.1778520  89.4984460  54.8162460  64.3314430
  89.9392550  54.7607560  63.4836030  89.2292050  55.7320470  64.4024610
  91.3623030  54.4477700  62.3423250  91.3011430  53.5038920  62.1954270
  92.1415060  54.5557790  62.8876710  75.6675780  70.5870060  61.3047200
  75.4997820  69.9540740  62.0029090  74.8010290  70.7929460  60.9541390
  82.8317610  56.5326110  61.7981370  82.0192120  56.1583000  61.4577250
  83.3359250  55.7771190  62.1002560  87.3342590  53.1968560  63.0364440
  87.9371960  53.7688770  63.5112960  86.5935580  53.7608000  62.8138340
  90.4777190  53.5990120  58.3104720  90.6727820  54.4973570  58.5772150
  89.6907060  53.3677200  58.8037670  77.2738480  69.2803290  58.7497340
  76.7486100  69.6611320  58.0459300  77.1983060  69.9054060  59.4707050
  80.8566790  54.6826030  60.4026420  80.2269530  53.9813340  60.5696550
  80.3171930  55.4430160  60.1859580  83.7958740  71.2965260  73.0737030
  84.7226050  71.0609530  73.1172990  83.7809170  72.1237260  72.5923060
  92.0303800  70.8390830  60.0711280  92.2055990  70.1528570  59.4272200
  91.3325370  71.3637880  59.6787950  80.9822350  53.9610010  72.8378910
  80.7006620  54.4643610  72.0739730  81.3642050  53.1631760  72.4721040
  79.8731450  71.2285670  57.6246590  80.6050270  70.9444950  57.0770480
  80.1325120  70.9898950  58.5145970  79.0346240  67.3450400  57.6292920
  78.4055120  67.8135500  58.1778750  79.1494070  66.4999620  58.0639110
  87.5837810  53.3763590  73.4159380  87.4703260  53.6958200  74.3110900
  88.4007550  53.7776100  73.1196660  90.3636300  70.5235120  72.8978070
  91.1561620  70.0284350  72.6904030  90.6569450  71.2025260  73.5053680
  88.6421430  67.5795270  44.4402520  88.1802960  66.8082510  44.7689690
  89.4546980  67.6061340  44.9454970  84.8684740  69.8653280  44.0606510
  84.2496180  70.3210780  43.4900950  85.7236520  70.0204740  43.6596210
  88.8752280  56.1513090  42.8270820  89.6961900  55.6609660  42.8696300
  88.9086360  56.7410750  43.5802660  93.1651830  58.1679840  49.3914450
  92.4604000  58.5561550  48.8729560  93.4309750  58.8630130  49.9935380
  85.7348090  64.7492520  41.4538420  85.1165360  65.2141970  40.8901140
  86.2471340  65.4420000  41.8707930  89.1113760  58.0913470  45.5998360
  88.4069330  58.3798360  46.1801470  89.4725920  58.9013580  45.2397920
  79.8098950  66.2449190  49.9471200  80.4272950  66.9200270  49.6655650
  78.9492070  66.6537170  49.8558700  90.7276540  67.7088600  47.8625840
  90.0440060  68.3787710  47.8542510  91.2670830  67.9069250  47.0970700
  92.1800680  57.5368260  45.9907570  91.2325590  57.5707240  46.1223000
  92.5050670  58.3507210  46.3756930  88.2635280  69.5532730  46.5771020
  88.2762440  69.1495020  45.7093280  87.7110500  70.3280020  46.4732450
  89.5580700  66.2748950  41.6661190  89.4477030  65.3323280  41.7910610
  89.5548950  66.6364590  42.5523950  87.6620720  64.4562570  47.9053630
  88.0789510  64.2422680  47.0707090  88.3860540  64.7135360  48.4762250
  85.0870060  58.1731270  38.0190840  84.1473730  58.3345230  38.1043300
  85.4053320  58.8916950  37.4726830  91.6082820  62.8549790  47.9969870
  90.7801450  62.9242880  47.5220000  92.2033300  63.4404100  47.5285700
  89.1298270  63.4634570  41.5258930  88.5110690  63.1254120  40.8785230
  89.1122720  62.8194330  42.2338120  88.5724830  59.6419110  48.9424740
  88.1596010  60.4672820  49.1964730  87.8400780  59.0564150  48.7501100
  89.2624930  69.6878440  49.6305720  88.7855490  70.4950630  49.4378330
  88.5786720  69.0356770  49.7831930  80.2657750  65.8528260  52.6190420
  79.3686280  66.0768230  52.8663820  80.2910620  65.9763200  51.6701820
  87.3062970  62.7021380  38.5331680  87.7456250  61.8643810  38.3869500
  88.0191390  63.3350780  38.6195820  85.4158350  67.6417450  42.5012920
  85.8554260  68.3841780  42.0868310  85.3545240  67.8844020  43.4251880
  80.8909320  68.6663280  53.4032940  80.8624750  69.0706230  52.5361370
  80.7274290  67.7373640  53.2404540  90.8880110  53.9564190  36.8472720
  90.5752770  54.0491020  37.7471790  91.6492580  54.5345220  36.7970150
  92.8424140  69.4490380  54.6997110  93.3183860  69.9273270  55.3786190
  93.4631300  69.3807870  53.9742610  92.2457390  66.6403230  51.8597120
  92.3720450  66.4015110  50.9414300  92.2878770  65.8087770  52.3319200
  86.1074130  70.3431230  50.4291930  86.6218800  70.2539240  51.2314360
  85.2643210  70.6890930  50.7219840  88.0828530  70.6286570  39.8575930
  87.9229670  70.3389510  40.7557760  87.9175240  69.8526700  39.3221160
  80.5616910  70.4085100  41.6347550  80.3859390  69.4920640  41.4215350
  79.7072650  70.7672390  41.8745350  87.7854660  68.1374130  38.4173930
  87.0919820  68.1351420  37.7576210  88.5277520  67.7133450  37.9868100
  87.3504590  69.7636840  42.4922420  87.8061540  68.9826220  42.8061040
  87.6897110  70.4743660  43.0363600  92.0981400  58.6935690  52.8246860
  91.4825670  59.2015360  52.2962320  91.7777820  57.7934020  52.7672800
  89.1600230  58.7536530  51.4205710  88.3093820  58.4542280  51.7414780
  89.0002020  58.9978540  50.5089530  86.2549940  60.2538280  53.5204500
  86.5803350  59.4202030  53.1806730  87.0430270  60.7766800  53.6682830
  86.8937890  59.7956000  41.0145630  86.2946780  60.5191800  40.8309250
  87.4417500  59.7332780  40.2322080  82.1039340  60.6878210  53.0815250
  82.0082940  59.7472940  52.9315650  82.9471320  60.9093280  52.6863320
  83.8094930  57.1826850  54.3045770  83.1193250  56.9899050  54.9391860
  84.5527230  57.4661490  54.8370070  89.9754560  53.8891150  52.3909010
  90.3000330  53.1580810  52.9166990  90.0111070  53.5704790  51.4890000
  89.9012400  64.0016260  45.9995040  90.6211520  64.4971550  45.6091150
  89.6994220  63.3234150  45.3548910  85.2831200  64.0725320  51.8864040
  85.2168510  63.1520990  51.6321630  84.6536340  64.1700760  52.6008680
  88.0770730  59.7673870  38.4386590  88.9650350  60.0791100  38.2637930
  88.0475820  58.8946120  38.0467170  84.0731320  65.9397560  39.1174760
  84.4147020  66.6839790  38.6218080  83.2444030  66.2528680  39.4799590
  85.2147930  66.8945890  51.6367840  85.2292470  65.9626850  51.4186750
  84.5073030  66.9805650  52.2757610  90.3485000  61.0785710  37.9066450
  90.2648720  61.5099930  37.0562890  91.0679190  61.5384060  38.3393270
  91.4259140  63.5353230  50.9836420  90.7007330  64.1282010  50.7865810
  91.9534600  63.5276770  50.1849790  91.3772250  67.9327970  40.6348580
  90.7348410  67.2783590  40.9092300  90.9902910  68.3383060  39.8589250
  86.9558730  65.2613400  44.4820270  87.3082550  64.6641530  43.8221640
  86.0721060  64.9357630  44.6528520  84.6481830  68.5363460  48.7308340
  85.2924050  68.7422840  49.4081760  85.0111270  67.7751860  48.2779190
  85.9213910  66.5395810  47.4485790  86.5636140  65.8388970  47.5617960
  86.4463260  67.3194250  47.2682680  89.7669630  66.8244430  37.1724930
  89.5407210  66.1074870  37.7649570  89.3765830  66.5756870  36.3346680
  87.6951530  67.3390710  50.6521850  88.0307770  67.9257400  51.3299770
  86.7751870  67.2083420  50.8819640  89.3485880  64.7416370  38.8339090
  89.0607580  65.2029060  39.6216970  90.1438050  64.2814140  39.1023310
  83.5240110  67.3882040  53.8209910  83.2036980  66.6691280  54.3655600
  82.8498470  68.0637110  53.8945970  81.5654280  68.2342490  38.7643060
  81.5564380  68.9672180  38.1487570  80.6452640  67.9874070  38.8570020
  86.7393710  57.6208200  49.1846710  87.1074530  56.8003410  49.5126280
  85.8791910  57.6810090  49.6002360  90.1055740  56.5765140  39.9934270
  89.4768900  56.6810810  39.2792500  89.6107660  56.7961920  40.7828150
  84.5513880  68.2970730  37.4268250  84.6525860  68.0934720  36.4970230
  83.6515620  68.0429010  37.6316030  83.1931990  70.8157050  42.1215920
  83.4473490  70.7778440  41.1995290  82.2444470  70.6890380  42.1144170
  90.9062560  56.4915750  50.2513070  90.4036160  57.2321150  50.5906880
  91.7219220  56.8799750  49.9349860  89.1984570  61.7348930  43.6974430
  88.2574710  61.7499160  43.8722120  89.5128640  60.9484890  44.1434730
  91.2010150  68.9057780  45.3728690  91.3257570  69.7288950  45.8452500
  92.0675710  68.6948510  45.0252840  78.6727680  70.9988990  45.0445820
  79.4090160  70.4504450  45.3154390  79.0568600  71.8645000  44.9051810
  77.6785960  70.1835060  54.2331400  78.4798690  70.5047110  54.6466800
  77.1637780  69.8230640  54.9551310  81.7829990  70.1719300  36.8671390
  82.5758600  70.4608130  36.4153180  81.2634340  69.7411470  36.1883870
  86.5150590  66.2914930  54.1806810  85.9088750  66.3146530  53.4402560
  86.2104700  65.5597970  54.7174060  87.9450960  70.0195220  52.7916220
  88.8972710  69.9353240  52.7416460  87.7979180  70.6836930  53.4650010
  90.8360160  69.3989430  38.2908130  90.5501670  68.9854570  37.4762310
  90.6379710  70.3277140  38.1708650  82.3007390  65.3922710  36.7313740
  82.1958030  64.7775060  37.4575120  82.1331610  64.8688600  35.9476750
  82.4521710  64.0779510  52.7102970  81.6867380  64.6464510  52.6257640
  82.6337670  63.7855720  51.8171200  85.5410120  64.4542740  37.3355730
  84.9920220  64.9012040  37.9798470  86.1629380  63.9491990  37.8593400
  89.5945060  65.8084840  53.2677990  90.3354530  66.1460600  52.7645450
  88.8317740  65.9776900  52.7147760  83.7212880  62.4371270  36.4798130
  84.2418540  61.7220290  36.1139280  84.3681280  63.0757140  36.7798640
  88.2690720  63.8599670  51.8033200  88.6831740  64.0144750  52.6523620
  87.3341720  63.9854890  51.9658980  88.7412890  61.1995830  53.8072350
  89.3233660  60.4448150  53.7192830  88.9174660  61.7303270  53.0303830
  83.0305950  63.8120150  49.7729130  83.4494060  64.6552880  49.6005370
  82.1114580  63.9492190  49.5435910  85.3669850  61.5436330  51.1566970
  85.4866060  60.9477470  51.8961810  86.2263850  61.5806020  50.7368270
  87.7057750  62.0973520  49.7329480  87.1792970  62.6216140  49.1294620
  88.0489090  62.7300910  50.3639210  80.8813370  70.1173160  50.8886860
  80.3434460  70.8419220  50.5695560  81.1347330  69.6403500  50.0984200
  86.9532050  57.7023490  52.6475810  86.2647570  57.0405030  52.5825800
  87.6738070  57.2561760  53.0924270  87.5832450  54.2975120  38.7066070
  87.8634740  53.4543020  39.0625490  86.8098180  54.5298230  39.2204820
  83.7375580  71.3524370  51.1473510  83.6634280  72.2559510  51.4545880
  82.8354420  71.0336270  51.1195580  82.1211870  55.5302130  37.1513270
  81.7733870  54.8526120  36.5715720  82.3224640  55.0691640  37.9656660
  84.2860910  70.5182880  38.7699870  85.1811700  70.8567850  38.7918630
  84.3178540  69.7962290  38.1424150  91.2655260  69.0486550  51.4766070
  90.6657250  69.1079110  50.7329990  91.3949160  68.1091530  51.6062920
  92.5056710  66.7904370  36.8135780  91.6749670  66.8581020  37.2843010
  92.6828540  67.6808490  36.5102640  91.9613170  63.5351850  39.3169980
  92.7232080  64.1048500  39.4229670  91.9767540  62.9679050  40.0878290
  92.9673140  64.3901950  44.1611910  93.3381970  63.6069270  43.7547880
  93.6075070  65.0791050  43.9829210  89.9506900  65.7738530  49.5742230
  89.1366740  66.2035690  49.8368020  90.3581100  66.3856940  48.9611280
  92.0132340  63.8286220  36.4742500  92.2881180  64.7365100  36.3461720
  91.8243080  63.7648750  37.4104490  88.4107950  56.8531070  37.7696130
  88.8292830  56.6662050  36.9292790  88.1044010  56.0010120  38.0799060
  91.9097680  61.7655210  41.4671930  91.5341280  60.9983140  41.0353220
  91.1800800  62.1477910  41.9546860  91.2997300  60.9126730  51.1011450
  91.0683390  60.6839480  50.2009400  91.5601850  61.8326280  51.0556340
  89.7385370  56.1383160  53.8791150  90.6155550  56.1466560  54.2625150
  89.7506210  55.4014000  53.2683500  91.1848640  59.9912700  44.7679170
  91.7086120  59.4975350  44.1369340  91.7708060  60.1263060  45.5126740
  91.3638360  60.0752570  48.2898720  90.4141070  60.0416110  48.4043710
  91.5451370  60.9852680  48.0548490  90.6748610  59.2486050  40.7071580
  91.1707730  59.0156920  41.4920460  90.4764680  58.4097890  40.2909220
  92.1035770  57.8847000  43.2409260  91.9935050  57.7303040  44.1791530
  92.8643360  57.3567940  42.9984670  90.4501490  53.8241130  49.6992260
  91.0873710  54.4375270  50.0651450  90.5976380  53.8601790  48.7541490
  92.9926040  55.7154920  36.4815400  93.9175350  55.5836100  36.2733690
  92.9701830  55.7947740  37.4351850  93.0664530  56.4865580  39.1072110
  92.2716030  56.4210700  39.6365020  93.2707810  57.4216220  39.0957460
  90.0082950  70.5257130  43.1010500  90.6042020  70.2041700  42.4244920
  90.2661100  70.0528950  43.8923770  81.6151550  68.5134630  48.8510850
  81.3742910  68.7809190  47.9641370  82.5554190  68.6840360  48.9061710
  83.8205970  54.9767320  52.6067360  83.7594860  55.5689150  53.3562770
  84.7606350  54.8693280  52.4617620  86.4580530  54.6337380  52.2459650
  87.0720940  54.9516670  51.5840730  87.0030090  54.1485970  52.8655510
  92.8755710  70.5329010  49.6521490  92.3813990  70.9297880  48.9348620
  92.2669000  69.9078220  50.0458770  87.1988570  53.1969520  48.5728940
  86.3248410  53.5304630  48.3701870  87.0899320  52.7242700  49.3980810
  88.1060550  55.4040390  49.9570660  87.7773910  54.5892150  49.5772390
  89.0542850  55.3610200  49.8336350  90.5595160  71.1752430  46.9308230
  90.0998130  71.9268240  46.5566250  89.9307620  70.4558900  46.8723030
  80.9890880  69.4840670  46.1056360  81.5055900  68.8728030  45.5804620
  81.6388260  69.9869450  46.5967370  83.7286380  70.3749160  46.9325340
  84.0164190  70.1203460  46.0558350  84.2409600  69.8226520  47.5230910
  89.4984460  54.8162460  45.5570940  89.9392550  54.7607560  44.7092540
  89.2292050  55.7320470  45.6281120  91.3623030  54.4477700  43.5679760
  91.3011430  53.5038920  43.4210780  92.1415060  54.5557790  44.1133220
  75.6675780  70.5870060  42.5303710  75.4997820  69.9540740  43.2285600
  74.8010290  70.7929460  42.1797900  90.4777190  53.5990120  39.5361230
  90.6727820  54.4973570  39.8028660  89.6907060  53.3677200  40.0294180
  83.7958740  71.2965260  54.2993540  84.7226050  71.0609530  54.3429500
  83.7809170  72.1237260  53.8179570  92.0303800  70.8390830  41.2967790
  92.2055990  70.1528570  40.6528710  91.3325370  71.3637880  40.9044460
  79.8731450  71.2285670  38.8503100  80.6050270  70.9444950  38.3026990
  80.1325120  70.9898950  39.7402480  87.5837810  53.3763590  54.6415890
  87.4703260  53.6958200  55.5367410  88.4007550  53.7776100  54.3453170
  90.3636300  70.5235120  54.1234580  91.1561620  70.0284350  53.9160540
  90.6569450  71.2025260  54.7310190  86.4895960  61.3956060  25.0050630
  86.4090010  60.4810670  24.7342340  86.0760380  61.8923130  24.2990340
  84.6214000  63.1735080  26.8859900  83.8456100  62.6935520  27.1758470
  85.2726930  62.4940730  26.7116060  78.6379830  63.4854890  27.7635660
  77.8064710  63.2303600  28.1632170  79.2460810  63.5565660  28.4993580
  88.6421430  67.5795270  25.6659030  88.1802960  66.8082510  25.9946200
  89.4546980  67.6061340  26.1711480  78.6181090  67.5194980  27.9593680
  78.9209130  66.6292720  27.7803900  79.3624680  68.0765200  27.7315930
  77.0471780  58.4456780  21.5478050  76.1588480  58.7872750  21.4457930
  77.3312970  58.2457100  20.6558880  84.8684740  69.8653280  25.2863020
  84.2496180  70.3210780  24.7157460  85.7236520  70.0204740  24.8852720
  84.0622990  65.8492270  26.8930060  83.9931270  64.9082210  26.7319190
  84.8242850  65.9393680  27.4652630  85.0928160  58.6562650  27.1198990
  85.4692980  57.7834530  27.0072660  84.9947670  58.9921350  26.2289430
  79.2233170  57.0288280  22.5816430  79.3299920  57.9292010  22.8885190
  78.3125530  56.9806250  22.2911080  88.8752280  56.1513090  24.0527330
  89.6961900  55.6609660  24.0952810  88.9086360  56.7410750  24.8059170
  81.0640900  59.9974650  26.9141610  81.5719120  60.4955620  27.5546630
  81.5954140  59.2209850  26.7380970  93.1651830  58.1679840  30.6170960
  92.4604000  58.5561550  30.0986070  93.4309750  58.8630130  31.2191890
  79.3477000  54.6373210  31.1805030  79.3495440  55.1545600  30.3750930
  78.5181310  54.1603390  31.1574960  85.7348090  64.7492520  22.6794930
  85.1165360  65.2141970  22.1157650  86.2471340  65.4420000  23.0964440
  80.5979850  64.2768390  29.3578530  80.2649230  64.9037310  29.9999600
  80.7746530  64.8030270  28.5780200  89.1113760  58.0913470  26.8254870
  88.4069330  58.3798360  27.4057980  89.4725920  58.9013580  26.4654430
  79.8098950  66.2449190  31.1727710  80.4272950  66.9200270  30.8912160
  78.9492070  66.6537170  31.0815210  75.1031290  65.4349050  20.0534560
  74.7259270  65.9236150  19.3219460  75.3604360  66.1074330  20.6841090
  90.7276540  67.7088600  29.0882350  90.0440060  68.3787710  29.0799020
  91.2670830  67.9069250  28.3227210  92.1800680  57.5368260  27.2164080
  91.2325590  57.5707240  27.3479510  92.5050670  58.3507210  27.6013440
  82.7120220  53.8365440  25.5120070  83.0195200  53.2812330  24.7955570
  81.7820920  53.9709900  25.3293060  88.2635280  69.5532730  27.8027530
  88.2762440  69.1495020  26.9349790  87.7110500  70.3280020  27.6988960
  89.5580700  66.2748950  22.8917700  89.4477030  65.3323280  23.0167120
  89.5548950  66.6364590  23.7780460  87.6620720  64.4562570  29.1310140
  88.0789510  64.2422680  28.2963600  88.3860540  64.7135360  29.7018760
  85.1000980  61.9014270  22.2480190  84.1730260  61.8351650  22.4768660
  85.2525800  62.8394400  22.1335430  85.0870060  58.1731270  19.2447350
  84.1473730  58.3345230  19.3299810  85.4053320  58.8916950  18.6983340
  91.6082820  62.8549790  29.2226380  90.7801450  62.9242880  28.7476510
  92.2033300  63.4404100  28.7542210  89.1298270  63.4634570  22.7515440
  88.5110690  63.1254120  22.1041740  89.1122720  62.8194330  23.4594630
  88.5724830  59.6419110  30.1681250  88.1596010  60.4672820  30.4221240
  87.8400780  59.0564150  29.9757610  80.7057620  62.4279010  25.0299920
  80.3014620  61.7156260  24.5345820  80.7920740  62.0832250  25.9187960
  81.1739320  66.1146570  27.1939130  80.8767610  65.5092040  26.5146910
  82.1239140  66.1523880  27.0828490  89.2624930  69.6878440  30.8562230
  88.7855490  70.4950630  30.6634840  88.5786720  69.0356770  31.0088440
  80.2657750  65.8528260  33.8446930  79.3686280  66.0768230  34.0920330
  80.2910620  65.9763200  32.8958330  87.3062970  62.7021380  19.7588190
  87.7456250  61.8643810  19.6126010  88.0191390  63.3350780  19.8452330
  85.4158350  67.6417450  23.7269430  85.8554260  68.3841780  23.3124820
  85.3545240  67.8844020  24.6508390  80.8909320  68.6663280  34.6289450
  80.8624750  69.0706230  33.7617880  80.7274290  67.7373640  34.4661050
  90.8880110  53.9564190  18.0729230  90.5752770  54.0491020  18.9728300
  91.6492580  54.5345220  18.0226660  77.4062250  61.3223990  22.5306570
  77.2859850  62.0486080  21.9187840  77.0963140  60.5526900  22.0534480
  92.8424140  69.4490380  35.9253620  93.3183860  69.9273270  36.6042700
  93.4631300  69.3807870  35.1999120  76.2895250  66.1939320  24.7481390
  75.8823330  66.3353910  23.8934990  77.1808260  65.9099480  24.5452600
  92.2457390  66.6403230  33.0853630  92.3720450  66.4015110  32.1670810
  92.2878770  65.8087770  33.5575710  86.1074130  70.3431230  31.6548440
  86.6218800  70.2539240  32.4570870  85.2643210  70.6890930  31.9476350
  88.0828530  70.6286570  21.0832440  87.9229670  70.3389510  21.9814270
  87.9175240  69.8526700  20.5477670  80.5616910  70.4085100  22.8604060
  80.3859390  69.4920640  22.6471860  79.7072650  70.7672390  23.1001860
  87.7854660  68.1374130  19.6430440  87.0919820  68.1351420  18.9832720
  88.5277520  67.7133450  19.2124610  87.3504590  69.7636840  23.7178930
  87.8061540  68.9826220  24.0317550  87.6897110  70.4743660  24.2620110
  92.0981400  58.6935690  34.0503370  91.4825670  59.2015360  33.5218830
  91.7777820  57.7934020  33.9929310  79.8725910  54.6659060  25.9130240
  79.4294060  55.4468600  25.5814760  80.4310900  54.9888950  26.6201180
  84.1595720  57.5327580  31.5165560  83.6975090  57.7410600  32.3285500
  83.7573830  56.7186930  31.2136230  89.1600230  58.7536530  32.6462220
  88.3093820  58.4542280  32.9671290  89.0002020  58.9978540  31.7346040
  86.2549940  60.2538280  34.7461010  86.5803350  59.4202030  34.4063240
  87.0430270  60.7766800  34.8939340  82.9884730  54.2869760  20.7936070
  82.3638910  54.2829630  21.5189380  82.9014850  53.4200720  20.3972040
  81.9101810  55.2106390  27.7719840  82.2074140  56.1169220  27.6911860
  82.4587370  54.7225170  27.1579410  79.6640130  59.7892630  23.6411490
  79.4381050  59.5729800  24.5458110  78.8832660  60.2221090  23.2957460
  86.8937890  59.7956000  22.2402140  86.2946780  60.5191800  22.0565760
  87.4417500  59.7332780  21.4578590  82.1039340  60.6878210  34.3071760
  82.0082940  59.7472940  34.1572160  82.9471320  60.9093280  33.9119830
  85.5002760  58.4319540  24.2705420  85.8932330  58.7491740  23.4574110
  85.8619610  57.5531420  24.3849940  83.8094930  57.1826850  35.5302280
  83.1193250  56.9899050  36.1648370  84.5527230  57.4661490  36.0626580
  74.7237160  58.9640460  17.7038340  74.6411830  59.9071220  17.8453330
  74.3720220  58.8215370  16.8250690  86.0857900  61.0225290  28.3656200
  85.3539020  61.5312100  28.7146300  85.6882240  60.2055270  28.0644980
  82.5235290  57.6979490  26.7708690  82.5271350  57.2569440  25.9213230
  83.4186410  58.0196820  26.8780510  82.5855440  58.6991570  19.7615450
  82.7068260  58.6578050  20.7101270  82.2003950  59.5615720  19.6062180
  86.5483810  56.4758970  27.7779140  86.5656550  56.9267620  28.6220990
  86.2999390  55.5764610  27.9912580  81.5976940  61.0092710  19.1598750
  81.0293840  60.5610960  18.5334660  82.3065940  61.3685490  18.6263900
  89.9754560  53.8891150  33.6165520  90.3000330  53.1580810  34.1423500
  90.0111070  53.5704790  32.7146510  82.8243260  61.7581270  28.5174100
  83.1913390  61.2839840  29.2635440  82.6348320  62.6322840  28.8582440
  80.6142630  60.7989910  30.8358310  80.3099700  61.6781890  31.0608670
  81.5689090  60.8589700  30.8715750  79.1424420  65.0050900  21.4325160
  78.3686680  64.4648520  21.2723880  79.8719050  64.4857510  21.0942920
  89.9012400  64.0016260  27.2251550  90.6211520  64.4971550  26.8347660
  89.6994220  63.3234150  26.5805420  85.3622340  55.3954220  21.3680940
  84.5486950  54.8967390  21.2926250  85.1684290  56.2352470  20.9517290
  85.2831200  64.0725320  33.1120550  85.2168510  63.1520990  32.8578140
  84.6536340  64.1700760  33.8265190  88.0770730  59.7673870  19.6643100
  88.9650350  60.0791100  19.4894440  88.0475820  58.8946120  19.2723680
  79.1861820  64.6731280  25.0703970  79.7040490  63.8699540  25.0160860
  78.7345840  64.6110420  25.9120800  84.0731320  65.9397560  20.3431270
  84.4147020  66.6839790  19.8474590  83.2444030  66.2528680  20.7056100
  85.2147930  66.8945890  32.8624350  85.2292470  65.9626850  32.6443260
  84.5073030  66.9805650  33.5014120  90.3485000  61.0785710  19.1322960
  90.2648720  61.5099930  18.2819400  91.0679190  61.5384060  19.5649780
  91.4259140  63.5353230  32.2092930  90.7007330  64.1282010  32.0122320
  91.9534600  63.5276770  31.4106300  91.3772250  67.9327970  21.8605090
  90.7348410  67.2783590  22.1348810  90.9902910  68.3383060  21.0845760
  86.9558730  65.2613400  25.7076780  87.3082550  64.6641530  25.0478150
  86.0721060  64.9357630  25.8785030  83.0422010  66.0211090  23.1147190
  83.7293140  66.5680300  23.4954780  82.2554430  66.5651820  23.1496800
  75.1814410  61.6383910  18.6064270  76.0509260  61.9208710  18.8900190
  74.6904730  62.4519780  18.4913080  82.3449220  63.0257120  22.7272550
  82.8012000  63.8362370  22.9532740  81.9937430  62.7080260  23.5591040
  84.6481830  68.5363460  29.9564850  85.2924050  68.7422840  30.6338270
  85.0111270  67.7751860  29.5035700  85.9213910  66.5395810  28.6742300
  86.5636140  65.8388970  28.7874470  86.4463260  67.3194250  28.4939190
  89.7669630  66.8244430  18.3981440  89.5407210  66.1074870  18.9906080
  89.3765830  66.5756870  17.5603190  87.6951530  67.3390710  31.8778360
  88.0307770  67.9257400  32.5556280  86.7751870  67.2083420  32.1076150
  75.5485660  70.8511290  19.1725900  75.9083300  71.4500630  18.5183170
  75.4078000  71.3971180  19.9460930  89.3485880  64.7416370  20.0595600
  89.0607580  65.2029060  20.8473480  90.1438050  64.2814140  20.3279820
  83.5240110  67.3882040  35.0466420  83.2036980  66.6691280  35.5912110
  82.8498470  68.0637110  35.1202480  81.5654280  68.2342490  19.9899570
  81.5564380  68.9672180  19.3744080  80.6452640  67.9874070  20.0826530
  77.1660920  63.4557380  20.7346330  76.5588870  64.1956280  20.7441630
  77.6410270  63.5456740  19.9084530  86.7393710  57.6208200  30.4103220
  87.1074530  56.8003410  30.7382790  85.8791910  57.6810090  30.8258870
  90.1055740  56.5765140  21.2190780  89.4768900  56.6810810  20.5049010
  89.6107660  56.7961920  22.0084660  84.5513880  68.2970730  18.6524760
  84.6525860  68.0934720  17.7226740  83.6515620  68.0429010  18.8572540
  82.0739770  58.8551090  22.6348660  81.3655920  59.3237430  23.0762270
  82.3584250  58.1973100  23.2693850  83.6995700  60.2747790  30.6341190
  84.1980950  60.7493610  31.2993040  83.8418650  59.3511310  30.8411220
  86.1055200  55.5801750  24.0744450  85.9822980  55.5987880  23.1253960
  87.0539760  55.6280690  24.1942850  83.1931990  70.8157050  23.3472430
  83.4473490  70.7778440  22.4251800  82.2444470  70.6890380  23.3400680
  80.2774790  57.1636170  20.0099370  81.1265320  57.6006320  19.9439560
  79.9106060  57.4756430  20.8371430  90.9062560  56.4915750  31.4769580
  90.4036160  57.2321150  31.8163390  91.7219220  56.8799750  31.1606370
  89.1984570  61.7348930  24.9230940  88.2574710  61.7499160  25.0978630
  89.5128640  60.9484890  25.3691240  79.1766210  63.4168530  18.4834900
  79.9429480  63.3049890  19.0460330  79.2540900  62.7206500  17.8311670
  77.8712970  60.8493600  19.1667790  77.9516560  59.9021110  19.2785190
  78.7632720  61.1800480  19.2728450  91.2010150  68.9057780  26.5985200
  91.3257570  69.7288950  27.0709010  92.0675710  68.6948510  26.2509350
  78.6727680  70.9988990  26.2702330  79.4090160  70.4504450  26.5410900
  79.0568600  71.8645000  26.1308320  75.5573160  67.0662560  22.1443840
  74.6312940  67.3083700  22.1349250  76.0229590  67.8936820  22.0228590
  81.7829990  70.1719300  18.0927900  82.5758600  70.4608130  17.6409690
  81.2634340  69.7411470  17.4140380  86.5150590  66.2914930  35.4063320
  85.9088750  66.3146530  34.6659070  86.2104700  65.5597970  35.9430570
  87.9450960  70.0195220  34.0172730  88.8972710  69.9353240  33.9672970
  87.7979180  70.6836930  34.6906520  90.8360160  69.3989430  19.5164640
  90.5501670  68.9854570  18.7018820  90.6379710  70.3277140  19.3965160
  82.3007390  65.3922710  17.9570250  82.1958030  64.7775060  18.6831630
  82.1331610  64.8688600  17.1733260  82.4521710  64.0779510  33.9359480
  81.6867380  64.6464510  33.8514150  82.6337670  63.7855720  33.0427710
  85.5410120  64.4542740  18.5612240  84.9920220  64.9012040  19.2054980
  86.1629380  63.9491990  19.0849910  89.5945060  65.8084840  34.4934500
  90.3354530  66.1460600  33.9901960  88.8317740  65.9776900  33.9404270
  81.2085240  63.4133660  20.4577540  81.6301660  63.2473530  21.3008930
  81.3336080  62.6033890  19.9632680  83.7212880  62.4371270  17.7054640
  84.2418540  61.7220290  17.3395790  84.3681280  63.0757140  18.0055150
  88.2690720  63.8599670  33.0289710  88.6831740  64.0144750  33.8780130
  87.3341720  63.9854890  33.1915490  88.7412890  61.1995830  35.0328860
  89.3233660  60.4448150  34.9449340  88.9174660  61.7303270  34.2560340
  79.8584960  56.3592580  33.3445810  79.7641830  55.7413330  32.6196680
  79.2782350  57.0858870  33.1175720  82.6246400  54.9165820  30.3773200
  82.1763700  54.9390080  29.5318750  81.9911600  54.5184840  30.9743500
  83.0305950  63.8120150  30.9985640  83.4494060  64.6552880  30.8261880
  82.1114580  63.9492190  30.7692420  85.3669850  61.5436330  32.3823480
  85.4866060  60.9477470  33.1218320  86.2263850  61.5806020  31.9624780
  87.7057750  62.0973520  30.9585990  87.1792970  62.6216140  30.3551130
  88.0489090  62.7300910  31.5895720  80.1044140  59.4866890  17.4035700
  79.9033200  58.6234250  17.7649040  79.9336190  59.4000250  16.4657300
  80.8813370  70.1173160  32.1143370  80.3434460  70.8419220  31.7952070
  81.1347330  69.6403500  31.3240710  82.1338620  58.0857680  33.6399300
  82.7238310  57.7773530  34.3277120  81.3158860  57.6137430  33.7959200
  86.9532050  57.7023490  33.8732320  86.2647570  57.0405030  33.8082310
  87.6738070  57.2561760  34.3180780  87.5832450  54.2975120  19.9322580
  87.8634740  53.4543020  20.2882000  86.8098180  54.5298230  20.4461330
  78.9026940  56.5867510  17.3913580  79.2052840  56.5934940  16.4832730
  79.6421530  56.2365370  17.8881240  83.7375580  71.3524370  32.3730020
  83.6634280  72.2559510  32.6802390  82.8354420  71.0336270  32.3452090
  82.1211870  55.5302130  18.3769780  81.7733870  54.8526120  17.7972230
  82.3224640  55.0691640  19.1913170  84.2860910  70.5182880  19.9956380
  85.1811700  70.8567850  20.0175140  84.3178540  69.7962290  19.3680660
  77.9257070  65.8909930  18.2243380  78.3631940  66.4339600  18.8800960
  78.4104800  65.0656880  18.2339720  79.7364790  67.0107970  23.3365610
  79.4360330  66.8872940  24.2369520  79.6302280  66.1516560  22.9281340
  91.2655260  69.0486550  32.7022580  90.6657250  69.1079110  31.9586500
  91.3949160  68.1091530  32.8319430  92.5056710  66.7904370  18.0392290
  91.6749670  66.8581020  18.5099520  92.6828540  67.6808490  17.7359150
  91.9613170  63.5351850  20.5426490  92.7232080  64.1048500  20.6486180
  91.9767540  62.9679050  21.3134800  75.4617510  62.0589780  24.7734150
  74.8066350  61.7901420  24.1293850  76.2995460  61.9494260  24.3236130
  92.9673140  64.3901950  25.3868420  93.3381970  63.6069270  24.9804390
  93.6075070  65.0791050  25.2085720  89.9506900  65.7738530  30.7998740
  89.1366740  66.2035690  31.0624530  90.3581100  66.3856940  30.1867790
  92.0132340  63.8286220  17.6999010  92.2881180  64.7365100  17.5718230
  91.8243080  63.7648750  18.6361000  88.4107950  56.8531070  18.9952640
  88.8292830  56.6662050  18.1549300  88.1044010  56.0010120  19.3055570
  91.9097680  61.7655210  22.6928440  91.5341280  60.9983140  22.2609730
  91.1800800  62.1477910  23.1803370  91.2997300  60.9126730  32.3267960
  91.0683390  60.6839480  31.4265910  91.5601850  61.8326280  32.2812850
  89.7385370  56.1383160  35.1047660  90.6155550  56.1466560  35.4881660
  89.7506210  55.4014000  34.4940010  91.1848640  59.9912700  25.9935680
  91.7086120  59.4975350  25.3625850  91.7708060  60.1263060  26.7383250
  91.3638360  60.0752570  29.5155230  90.4141070  60.0416110  29.6300220
  91.5451370  60.9852680  29.2805000  77.2182800  58.3254250  18.6253860
  77.9274500  57.9037470  18.1401140  76.5022740  58.3929480  17.9937210
  76.8656960  54.3793580  17.6656510  77.5885090  54.9202520  17.9837730
  77.1381480  54.1057000  16.7898050  90.6748610  59.2486050  21.9328090
  91.1707730  59.0156920  22.7176970  90.4764680  58.4097890  21.5165730
  92.1035770  57.8847000  24.4665770  91.9935050  57.7303040  25.4048040
  92.8643360  57.3567940  24.2241180  90.4501490  53.8241130  30.9248770
  91.0873710  54.4375270  31.2907960  90.5976380  53.8601790  29.9798000
  92.9926040  55.7154920  17.7071910  93.9175350  55.5836100  17.4990200
  92.9701830  55.7947740  18.6608360  93.0664530  56.4865580  20.3328620
  92.2716030  56.4210700  20.8621530  93.2707810  57.4216220  20.3213970
  90.0082950  70.5257130  24.3267010  90.6042020  70.2041700  23.6501430
  90.2661100  70.0528950  25.1180280  81.6151550  68.5134630  30.0767360
  81.3742910  68.7809190  29.1897880  82.5554190  68.6840360  30.1318220
  83.8205970  54.9767320  33.8323870  83.7594860  55.5689150  34.5819280
  84.7606350  54.8693280  33.6874130  86.4580530  54.6337380  33.4716160
  87.0720940  54.9516670  32.8097240  87.0030090  54.1485970  34.0912020
  92.8755710  70.5329010  30.8778000  92.3813990  70.9297880  30.1605130
  92.2669000  69.9078220  31.2715280  87.1988570  53.1969520  29.7985450
  86.3248410  53.5304630  29.5958380  87.0899320  52.7242700  30.6237320
  88.1060550  55.4040390  31.1827170  87.7773910  54.5892150  30.8028900
  89.0542850  55.3610200  31.0592860  90.5595160  71.1752430  28.1564740
  90.0998130  71.9268240  27.7822760  89.9307620  70.4558900  28.0979540
  80.9890880  69.4840670  27.3312870  81.5055900  68.8728030  26.8061130
  81.6388260  69.9869450  27.8223880  83.7286380  70.3749160  28.1581850
  84.0164190  70.1203460  27.2814860  84.2409600  69.8226520  28.7487420
  84.9463390  54.1139360  28.7378360  84.1635180  54.5884860  29.0175120
  84.6526320  53.2094190  28.6291540  89.4984460  54.8162460  26.7827450
  89.9392550  54.7607560  25.9349050  89.2292050  55.7320470  26.8537630
  91.3623030  54.4477700  24.7936270  91.3011430  53.5038920  24.6467290
  92.1415060  54.5557790  25.3389730  75.6675780  70.5870060  23.7560220
  75.4997820  69.9540740  24.4542110  74.8010290  70.7929460  23.4054410
  82.8317610  56.5326110  24.2494390  82.0192120  56.1583000  23.9090270
  83.3359250  55.7771190  24.5515580  87.3342590  53.1968560  25.4877460
  87.9371960  53.7688770  25.9625980  86.5935580  53.7608000  25.2651360
  90.4777190  53.5990120  20.7617740  90.6727820  54.4973570  21.0285170
  89.6907060  53.3677200  21.2550690  77.2738480  69.2803290  21.2010360
  76.7486100  69.6611320  20.4972320  77.1983060  69.9054060  21.9220070
  78.6628950  54.9450890  19.7994050  79.1921710  54.1580690  19.6702000
  79.2957270  55.6242080  20.0329580  80.8566790  54.6826030  22.8539440
  80.2269530  53.9813340  23.0209570  80.3171930  55.4430160  22.6372600
  83.7958740  71.2965260  35.5250050  84.7226050  71.0609530  35.5686010
  83.7809170  72.1237260  35.0436080  92.0303800  70.8390830  22.5224300
  92.2055990  70.1528570  21.8785220  91.3325370  71.3637880  22.1300970
  80.9822350  53.9610010  35.2891930  80.7006620  54.4643610  34.5252750
  81.3642050  53.1631760  34.9234060  79.8731450  71.2285670  20.0759610
  80.6050270  70.9444950  19.5283500  80.1325120  70.9898950  20.9658990
  79.0346240  67.3450400  20.0805940  78.4055120  67.8135500  20.6291770
  79.1494070  66.4999620  20.5152130  87.5837810  53.3763590  35.8672400
  87.4703260  53.6958200  36.7623920  88.4007550  53.7776100  35.5709680
  90.3636300  70.5235120  35.3491090  91.1561620  70.0284350  35.1417050
  90.6569450  71.2025260  35.9566700  86.4895960  61.3956060   6.2307140
  86.4090010  60.4810670   5.9598850  86.0760380  61.8923130   5.5246850
  84.6214000  63.1735080   8.1116410  83.8456100  62.6935520   8.4014980
  85.2726930  62.4940730   7.9372570  78.6379830  63.4854890   8.9892170
  77.8064710  63.2303600   9.3888680  79.2460810  63.5565660   9.7250090
  88.6421430  67.5795270   6.8915540  88.1802960  66.8082510   7.2202710
  89.4546980  67.6061340   7.3967990  78.6181090  67.5194980   9.1850190
  78.9209130  66.6292720   9.0060410  79.3624680  68.0765200   8.9572440
  77.0471780  58.4456780   2.7734560  76.1588480  58.7872750   2.6714440
  77.3312970  58.2457100   1.8815390  75.0104790  61.0462430   8.6574260
  75.5820900  60.2784630   8.6577900  75.0106330  61.3451190   7.7480870
  84.8684740  69.8653280   6.5119530  84.2496180  70.3210780   5.9413970
  85.7236520  70.0204740   6.1109230  84.0622990  65.8492270   8.1186570
  83.9931270  64.9082210   7.9575700  84.8242850  65.9393680   8.6909140
  76.2529660  56.4546790  10.4443190  76.0732500  55.5572540  10.7245950
  75.8509740  57.0018660  11.1190140  85.0928160  58.6562650   8.3455500
  85.4692980  57.7834530   8.2329170  84.9947670  58.9921350   7.4545940
  79.2233170  57.0288280   3.8072940  79.3299920  57.9292010   4.1141700
  78.3125530  56.9806250   3.5167590  88.8752280  56.1513090   5.2783840
  89.6961900  55.6609660   5.3209320  88.9086360  56.7410750   6.0315680
  76.8716330  58.9507290   9.0525530  77.5526440  59.2145660   9.6712930
  76.5564380  58.1108160   9.3863540  81.0640900  59.9974650   8.1398120
  81.5719120  60.4955620   8.7803140  81.5954140  59.2209850   7.9637480
  93.1651830  58.1679840  11.8427470  92.4604000  58.5561550  11.3242580
  93.4309750  58.8630130  12.4448400  79.3477000  54.6373210  12.4061540
  79.3495440  55.1545600  11.6007440  78.5181310  54.1603390  12.3831470
  85.7348090  64.7492520   3.9051440  85.1165360  65.2141970   3.3414160
  86.2471340  65.4420000   4.3220950  80.5979850  64.2768390  10.5835040
  80.2649230  64.9037310  11.2256110  80.7746530  64.8030270   9.8036710
  89.1113760  58.0913470   8.0511380  88.4069330  58.3798360   8.6314490
  89.4725920  58.9013580   7.6910940  79.0292330  56.3483170  10.4131990
  79.3709140  57.1925220  10.1185860  78.0908140  56.4966910  10.5297330
  79.8098950  66.2449190  12.3984220  80.4272950  66.9200270  12.1168670
  78.9492070  66.6537170  12.3071720  90.7276540  67.7088600  10.3138860
  90.0440060  68.3787710  10.3055530  91.2670830  67.9069250   9.5483720
  92.1800680  57.5368260   8.4420590  91.2325590  57.5707240   8.5736020
  92.5050670  58.3507210   8.8269950  82.7120220  53.8365440   6.7376580
  83.0195200  53.2812330   6.0212080  81.7820920  53.9709900   6.5549570
  88.2635280  69.5532730   9.0284040  88.2762440  69.1495020   8.1606300
  87.7110500  70.3280020   8.9245470  89.5580700  66.2748950   4.1174210
  89.4477030  65.3323280   4.2423630  89.5548950  66.6364590   5.0036970
  87.6620720  64.4562570  10.3566650  88.0789510  64.2422680   9.5220110
  88.3860540  64.7135360  10.9275270  85.1000980  61.9014270   3.4736700
  84.1730260  61.8351650   3.7025170  85.2525800  62.8394400   3.3591940
  91.6082820  62.8549790  10.4482890  90.7801450  62.9242880   9.9733020
  92.2033300  63.4404100   9.9798720  89.1298270  63.4634570   3.9771950
  88.5110690  63.1254120   3.3298250  89.1122720  62.8194330   4.6851140
  88.5724830  59.6419110  11.3937760  88.1596010  60.4672820  11.6477750
  87.8400780  59.0564150  11.2014120  80.7057620  62.4279010   6.2556430
  80.3014620  61.7156260   5.7602330  80.7920740  62.0832250   7.1444470
  81.1739320  66.1146570   8.4195640  80.8767610  65.5092040   7.7403420
  82.1239140  66.1523880   8.3085000  79.4186240  59.2022220  10.0355470
  79.9700830  59.3117560   9.2608720  79.9329750  59.5759820  10.7510700
  89.2624930  69.6878440  12.0818740  88.7855490  70.4950630  11.8891350
  88.5786720  69.0356770  12.2344950  80.2657750  65.8528260  15.0703440
  79.3686280  66.0768230  15.3176840  80.2910620  65.9763200  14.1214840
  79.0928970  62.7241580  13.6460810  78.9536740  63.5964380  14.0148210
  78.2110330  62.3814390  13.5008750  85.4158350  67.6417450   4.9525940
  85.8554260  68.3841780   4.5381330  85.3545240  67.8844020   5.8764900
  80.8909320  68.6663280  15.8545960  80.8624750  69.0706230  14.9874390
  80.7274290  67.7373640  15.6917560  77.4062250  61.3223990   3.7563080
  77.2859850  62.0486080   3.1444350  77.0963140  60.5526900   3.2790990
  92.8424140  69.4490380  17.1510130  93.3183860  69.9273270  17.8299210
  93.4631300  69.3807870  16.4255630  75.0447620  64.4939130   9.5631720
  75.1228040  64.6287900   8.6187440  75.6589300  63.7855020   9.7559840
  76.2895250  66.1939320   5.9737900  75.8823330  66.3353910   5.1191500
  77.1808260  65.9099480   5.7709110  92.2457390  66.6403230  14.3110140
  92.3720450  66.4015110  13.3927320  92.2878770  65.8087770  14.7832220
  86.1074130  70.3431230  12.8804950  86.6218800  70.2539240  13.6827380
  85.2643210  70.6890930  13.1732860  88.0828530  70.6286570   2.3088950
  87.9229670  70.3389510   3.2070780  87.9175240  69.8526700   1.7734180
  80.5616910  70.4085100   4.0860570  80.3859390  69.4920640   3.8728370
  79.7072650  70.7672390   4.3258370  87.3504590  69.7636840   4.9435440
  87.8061540  68.9826220   5.2574060  87.6897110  70.4743660   5.4876620
  92.0981400  58.6935690  15.2759880  91.4825670  59.2015360  14.7475340
  91.7777820  57.7934020  15.2185820  75.1007140  65.5353300  12.1026180
  75.2638180  65.0658660  11.2845550  75.5659590  65.0276860  12.7675020
  79.8725910  54.6659060   7.1386750  79.4294060  55.4468600   6.8071270
  80.4310900  54.9888950   7.8457690  84.1595720  57.5327580  12.7422070
  83.6975090  57.7410600  13.5542010  83.7573830  56.7186930  12.4392740
  89.1600230  58.7536530  13.8718730  88.3093820  58.4542280  14.1927800
  89.0002020  58.9978540  12.9602550  86.2549940  60.2538280  15.9717520
  86.5803350  59.4202030  15.6319750  87.0430270  60.7766800  16.1195850
  81.9101810  55.2106390   8.9976350  82.2074140  56.1169220   8.9168370
  82.4587370  54.7225170   8.3835920  79.6640130  59.7892630   4.8668000
  79.4381050  59.5729800   5.7714620  78.8832660  60.2221090   4.5213970
  86.8937890  59.7956000   3.4658650  86.2946780  60.5191800   3.2822270
  87.4417500  59.7332780   2.6835100  82.1039340  60.6878210  15.5328270
  82.0082940  59.7472940  15.3828670  82.9471320  60.9093280  15.1376340
  85.5002760  58.4319540   5.4961930  85.8932330  58.7491740   4.6830620
  85.8619610  57.5531420   5.6106450  77.2349880  57.0991880  13.6862050
  76.8413270  57.9467090  13.8934830  76.5468280  56.4618250  13.8770690
  83.8094930  57.1826850  16.7558790  83.1193250  56.9899050  17.3904880
  84.5527230  57.4661490  17.2883090  74.5366930  55.0220340   7.7192130
  74.2479980  55.5923200   8.4317110  75.2812690  54.5424790   8.0823360
  86.0857900  61.0225290   9.5912710  85.3539020  61.5312100   9.9402810
  85.6882240  60.2055270   9.2901490  82.5235290  57.6979490   7.9965200
  82.5271350  57.2569440   7.1469740  83.4186410  58.0196820   8.1037020
  78.3737670  57.5805980   6.9559410  78.0337720  58.0581210   7.7126460
  77.6114990  57.1271100   6.5960510  86.5483810  56.4758970   9.0035650
  86.5656550  56.9267620   9.8477500  86.2999390  55.5764610   9.2169090
  89.9754560  53.8891150  14.8422030  90.3000330  53.1580810  15.3680010
  90.0111070  53.5704790  13.9403020  76.6746120  64.9104730  14.2621990
  76.2900910  64.2698400  14.8604950  76.9858310  65.6140850  14.8316720
  82.8243260  61.7581270   9.7430610  83.1913390  61.2839840  10.4891950
  82.6348320  62.6322840  10.0838950  75.6883750  56.5024960   5.8724080
  75.4030670  56.1380630   6.7102700  75.6262610  55.7705420   5.2587220
  80.6142630  60.7989910  12.0614820  80.3099700  61.6781890  12.2865180
  81.5689090  60.8589700  12.0972260  79.1424420  65.0050900   2.6581670
  78.3686680  64.4648520   2.4980390  79.8719050  64.4857510   2.3199430
  89.9012400  64.0016260   8.4508060  90.6211520  64.4971550   8.0604170
  89.6994220  63.3234150   7.8061930  85.3622340  55.3954220   2.5937450
  84.5486950  54.8967390   2.5182760  85.1684290  56.2352470   2.1773800
  85.2831200  64.0725320  14.3377060  85.2168510  63.1520990  14.0834650
  84.6536340  64.1700760  15.0521700  79.1861820  64.6731280   6.2960480
  79.7040490  63.8699540   6.2417370  78.7345840  64.6110420   7.1377310
  76.6706360  61.6392650  13.2086180  76.3121300  62.3046500  13.7959520
  76.3760920  60.8076200  13.5798800  79.8719480  62.0976890  16.0925730
  79.5719620  62.2434070  15.1953550  80.6430720  61.5382180  15.9999120
  85.2147930  66.8945890  14.0880860  85.2292470  65.9626850  13.8699770
  84.5073030  66.9805650  14.7270630  91.4259140  63.5353230  13.4349440
  90.7007330  64.1282010  13.2378830  91.9534600  63.5276770  12.6362810
  91.3772250  67.9327970   3.0861600  90.7348410  67.2783590   3.3605320
  90.9902910  68.3383060   2.3102270  86.9558730  65.2613400   6.9333290
  87.3082550  64.6641530   6.2734660  86.0721060  64.9357630   7.1041540
  83.0422010  66.0211090   4.3403700  83.7293140  66.5680300   4.7211290
  82.2554430  66.5651820   4.3753310  82.3449220  63.0257120   3.9529060
  82.8012000  63.8362370   4.1789250  81.9937430  62.7080260   4.7847550
  84.6481830  68.5363460  11.1821360  85.2924050  68.7422840  11.8594780
  85.0111270  67.7751860  10.7292210  78.2461000  53.3694770   4.4251580
  78.1175630  53.3612670   5.3736500  77.4223020  53.7077860   4.0742590
  85.9213910  66.5395810   9.8998810  86.5636140  65.8388970  10.0130980
  86.4463260  67.3194250   9.7195700  87.6951530  67.3390710  13.1034870
  88.0307770  67.9257400  13.7812790  86.7751870  67.2083420  13.3332660
  75.2454930  55.1285890  13.8858280  74.5313450  55.3282810  14.4910890
  75.6649970  54.3525460  14.2573080  75.5327520  69.1166150  14.8724810
  75.6418640  68.1760890  14.7320200  74.8808080  69.3820900  14.2238540
  83.5240110  67.3882040  16.2722930  83.2036980  66.6691280  16.8168620
  82.8498470  68.0637110  16.3458990  86.7393710  57.6208200  11.6359730
  87.1074530  56.8003410  11.9639300  85.8791910  57.6810090  12.0515380
  90.1055740  56.5765140   2.4447290  89.4768900  56.6810810   1.7305520
  89.6107660  56.7961920   3.2341170  82.0739770  58.8551090   3.8605170
  81.3655920  59.3237430   4.3018780  82.3584250  58.1973100   4.4950360
  83.6995700  60.2747790  11.8597700  84.1980950  60.7493610  12.5249550
  83.8418650  59.3511310  12.0667730  86.1055200  55.5801750   5.3000960
  85.9822980  55.5987880   4.3510470  87.0539760  55.6280690   5.4199360
  83.1931990  70.8157050   4.5728940  83.4473490  70.7778440   3.6508310
  82.2444470  70.6890380   4.5657190  90.9062560  56.4915750  12.7026090
  90.4036160  57.2321150  13.0419900  91.7219220  56.8799750  12.3862880
  89.1984570  61.7348930   6.1487450  88.2574710  61.7499160   6.3235140
  89.5128640  60.9484890   6.5947750  91.2010150  68.9057780   7.8241710
  91.3257570  69.7288950   8.2965520  92.0675710  68.6948510   7.4765860
  78.6727680  70.9988990   7.4958840  79.4090160  70.4504450   7.7667410
  79.0568600  71.8645000   7.3564830  75.5573160  67.0662560   3.3700350
  74.6312940  67.3083700   3.3605760  76.0229590  67.8936820   3.2485100
  77.6785960  70.1835060  16.6844420  78.4798690  70.5047110  17.0979820
  77.1637780  69.8230640  17.4064330  86.5150590  66.2914930  16.6319830
  85.9088750  66.3146530  15.8915580  86.2104700  65.5597970  17.1687080
  87.9450960  70.0195220  15.2429240  88.8972710  69.9353240  15.1929480
  87.7979180  70.6836930  15.9163030  75.3983770  62.6708520  15.6280470
  75.9022790  62.0915800  16.1996700  74.6591190  62.9548750  16.1656840
  82.4521710  64.0779510  15.1615990  81.6867380  64.6464510  15.0770660
  82.6337670  63.7855720  14.2684220  89.5945060  65.8084840  15.7191010
  90.3354530  66.1460600  15.2158470  88.8317740  65.9776900  15.1660780
  77.4306850  60.8138110  16.5230540  77.4712190  60.5151980  17.4315770
  78.2852350  61.2145720  16.3638060  79.3712660  59.3930210  14.4905030
  78.8409120  58.9021160  13.8628370  80.0400730  59.8214410  13.9562960
  88.2690720  63.8599670  14.2546220  88.6831740  64.0144750  15.1036640
  87.3341720  63.9854890  14.4172000  88.7412890  61.1995830  16.2585370
  89.3233660  60.4448150  16.1705850  88.9174660  61.7303270  15.4816850
  79.8584960  56.3592580  14.5702320  79.7641830  55.7413330  13.8453190
  79.2782350  57.0858870  14.3432230  82.6246400  54.9165820  11.6029710
  82.1763700  54.9390080  10.7575260  81.9911600  54.5184840  12.2000010
  83.0305950  63.8120150  12.2242150  83.4494060  64.6552880  12.0518390
  82.1114580  63.9492190  11.9948930  85.3669850  61.5436330  13.6079990
  85.4866060  60.9477470  14.3474830  86.2263850  61.5806020  13.1881290
  87.7057750  62.0973520  12.1842500  87.1792970  62.6216140  11.5807640
  88.0489090  62.7300910  12.8152230  80.8813370  70.1173160  13.3399880
  80.3434460  70.8419220  13.0208580  81.1347330  69.6403500  12.5497220
  82.1338620  58.0857680  14.8655810  82.7238310  57.7773530  15.5533630
  81.3158860  57.6137430  15.0215710  86.9532050  57.7023490  15.0988830
  86.2647570  57.0405030  15.0338820  87.6738070  57.2561760  15.5437290
  83.7375580  71.3524370  13.5986530  83.6634280  72.2559510  13.9058900
  82.8354420  71.0336270  13.5708600  75.1402870  68.6798960   6.9020150
  75.4705880  67.8120020   6.6698790  75.5693870  68.8857480   7.7325110
  79.7364790  67.0107970   4.5622120  79.4360330  66.8872940   5.4626030
  79.6302280  66.1516560   4.1537850  75.6293080  69.5469550   9.6401780
  75.1924070  69.7270350  10.4725930  76.1970760  70.3044170   9.4983500
  91.2655260  69.0486550  13.9279090  90.6657250  69.1079110  13.1843010
  91.3949160  68.1091530  14.0575940  91.9613170  63.5351850   1.7683000
  92.7232080  64.1048500   1.8742690  91.9767540  62.9679050   2.5391310
  75.4617510  62.0589780   5.9990660  74.8066350  61.7901420   5.3550360
  76.2995460  61.9494260   5.5492640  92.9673140  64.3901950   6.6124930
  93.3381970  63.6069270   6.2060900  93.6075070  65.0791050   6.4342230
  89.9506900  65.7738530  12.0255250  89.1366740  66.2035690  12.2881040
  90.3581100  66.3856940  11.4124300  91.9097680  61.7655210   3.9184950
  91.5341280  60.9983140   3.4866240  91.1800800  62.1477910   4.4059880
  76.4993440  62.4442350  10.5394000  76.8666480  62.3569750  11.4190020
  75.9304260  61.6808900  10.4400860  91.2997300  60.9126730  13.5524470
  91.0683390  60.6839480  12.6522420  91.5601850  61.8326280  13.5069360
  76.0509440  59.3551440  14.4452420  75.1565490  59.3218200  14.7846130
  76.5906990  59.5538230  15.2103670  89.7385370  56.1383160  16.3304170
  90.6155550  56.1466560  16.7138170  89.7506210  55.4014000  15.7196520
  91.1848640  59.9912700   7.2192190  91.7086120  59.4975350   6.5882360
  91.7708060  60.1263060   7.9639760  91.3638360  60.0752570  10.7411740
  90.4141070  60.0416110  10.8556730  91.5451370  60.9852680  10.5061510
  90.6748610  59.2486050   3.1584600  91.1707730  59.0156920   3.9433480
  90.4764680  58.4097890   2.7422240  76.5549150  53.6299770   8.7935640
  77.2025340  53.0797150   8.3530800  76.9750990  53.8842920   9.6151450
  92.1035770  57.8847000   5.6922280  91.9935050  57.7303040   6.6304550
  92.8643360  57.3567940   5.4497690  90.4501490  53.8241130  12.1505280
  91.0873710  54.4375270  12.5164470  90.5976380  53.8601790  11.2054510
  90.0082950  70.5257130   5.5523520  90.6042020  70.2041700   4.8757940
  90.2661100  70.0528950   6.3436790  76.3081150  53.7855440  11.5360960
  75.9595970  54.2419260  12.3019140  75.9768850  52.8912570  11.6183390
  77.9145520  66.9575040  15.7014150  77.8715150  66.5867950  16.5828610
  78.0456530  67.8952610  15.8415970  81.6151550  68.5134630  11.3023870
  81.3742910  68.7809190  10.4154390  82.5554190  68.6840360  11.3574730
  83.8205970  54.9767320  15.0580380  83.7594860  55.5689150  15.8075790
  84.7606350  54.8693280  14.9130640  86.4580530  54.6337380  14.6972670
  87.0720940  54.9516670  14.0353750  87.0030090  54.1485970  15.3168530
  92.8755710  70.5329010  12.1034510  92.3813990  70.9297880  11.3861640
  92.2669000  69.9078220  12.4971790  76.9801790  53.3131640  14.8111730
  77.5284780  53.1319690  14.0477840  77.0457100  52.5225750  15.3468040
  77.7533550  69.9037290  12.8211930  77.1593870  69.7721990  13.5601970
  77.7457390  69.0675430  12.3554030  87.1988570  53.1969520  11.0241960
  86.3248410  53.5304630  10.8214890  87.0899320  52.7242700  11.8493830
  88.1060550  55.4040390  12.4083680  87.7773910  54.5892150  12.0285410
  89.0542850  55.3610200  12.2849370  90.5595160  71.1752430   9.3821250
  90.0998130  71.9268240   9.0079270  89.9307620  70.4558900   9.3236050
  77.3845780  67.2695670  11.7719970  76.6579840  66.6500960  11.7045920
  77.4454930  67.6636280  10.9018050  80.9890880  69.4840670   8.5569380
  81.5055900  68.8728030   8.0317640  81.6388260  69.9869450   9.0480390
  83.7286380  70.3749160   9.3838360  84.0164190  70.1203460   8.5071370
  84.2409600  69.8226520   9.9743930  84.9463390  54.1139360   9.9634870
  84.1635180  54.5884860  10.2431630  84.6526320  53.2094190   9.8548050
  89.4984460  54.8162460   8.0083960  89.9392550  54.7607560   7.1605560
  89.2292050  55.7320470   8.0794140  91.3623030  54.4477700   6.0192780
  91.3011430  53.5038920   5.8723800  92.1415060  54.5557790   6.5646240
  75.6675780  70.5870060   4.9816730  75.4997820  69.9540740   5.6798620
  74.8010290  70.7929460   4.6310920  76.2903800  54.4186840   2.4848590
  77.0483160  54.5315720   1.9112620  75.8280970  55.2556040   2.4392020
  82.8317610  56.5326110   5.4750900  82.0192120  56.1583000   5.1346780
  83.3359250  55.7771190   5.7772090  87.3342590  53.1968560   6.7133970
  87.9371960  53.7688770   7.1882490  86.5935580  53.7608000   6.4907870
  90.4777190  53.5990120   1.9874250  90.6727820  54.4973570   2.2541680
  89.6907060  53.3677200   2.4807200  77.2738480  69.2803290   2.4266870
  76.7486100  69.6611320   1.7228830  77.1983060  69.9054060   3.1476580
  80.8566790  54.6826030   4.0795950  80.2269530  53.9813340   4.2466080
  80.3171930  55.4430160   3.8629110  83.7958740  71.2965260  16.7506560
  84.7226050  71.0609530  16.7942520  83.7809170  72.1237260  16.2692590
  92.0303800  70.8390830   3.7480810  92.2055990  70.1528570   3.1041730
  91.3325370  71.3637880   3.3557480  80.9822350  53.9610010  16.5148440
  80.7006620  54.4643610  15.7509260  81.3642050  53.1631760  16.1490570
  87.5837810  53.3763590  17.0928910  87.4703260  53.6958200  17.9880430
  88.4007550  53.7776100  16.7966190  90.3636300  70.5235120  16.5747600
  91.1561620  70.0284350  16.3673560  90.6569450  71.2025260  17.1823210
  86.4895960  42.6212570  81.3281100  86.4090010  41.7067180  81.0572810
  86.0760380  43.1179640  80.6220810  84.6214000  44.3991590  83.2090370
  83.8456100  43.9192030  83.4988940  85.2726930  43.7197240  83.0346530
  78.6379830  44.7111400  84.0866130  77.8064710  44.4560110  84.4862640
  79.2460810  44.7822170  84.8224050  88.6421430  48.8051780  81.9889500
  88.1802960  48.0339020  82.3176670  89.4546980  48.8317850  82.4941950
  78.6181090  48.7451490  84.2824150  78.9209130  47.8549230  84.1034370
  79.3624680  49.3021710  84.0546400  77.0471780  39.6713290  77.8708520
  76.1588480  40.0129260  77.7688400  77.3312970  39.4713610  76.9789350
  75.0104790  42.2718940  83.7548220  75.5820900  41.5041140  83.7551860
  75.0106330  42.5707700  82.8454830  84.8684740  51.0909790  81.6093490
  84.2496180  51.5467290  81.0387930  85.7236520  51.2461250  81.2083190
  84.0622990  47.0748780  83.2160530  83.9931270  46.1338720  83.0549660
  84.8242850  47.1650190  83.7883100  76.2529660  37.6803300  85.5417150
  76.0732500  36.7829050  85.8219910  75.8509740  38.2275170  86.2164100
  85.0928160  39.8819160  83.4429460  85.4692980  39.0091040  83.3303130
  84.9947670  40.2177860  82.5519900  79.2233170  38.2544790  78.9046900
  79.3299920  39.1548520  79.2115660  78.3125530  38.2062760  78.6141550
  88.8752280  37.3769600  80.3757800  89.6961900  36.8866170  80.4183280
  88.9086360  37.9667260  81.1289640  76.8716330  40.1763800  84.1499490
  77.5526440  40.4402170  84.7686890  76.5564380  39.3364670  84.4837500
  81.0640900  41.2231160  83.2372080  81.5719120  41.7212130  83.8777100
  81.5954140  40.4466360  83.0611440  93.1651830  39.3936350  86.9401430
  92.4604000  39.7818060  86.4216540  93.4309750  40.0886640  87.5422360
  79.3477000  35.8629720  87.5035500  79.3495440  36.3802110  86.6981400
  78.5181310  35.3859900  87.4805430  85.7348090  45.9749030  79.0025400
  85.1165360  46.4398480  78.4388120  86.2471340  46.6676510  79.4194910
  80.5979850  45.5024900  85.6809000  80.2649230  46.1293820  86.3230070
  80.7746530  46.0286780  84.9010670  89.1113760  39.3169980  83.1485340
  88.4069330  39.6054870  83.7288450  89.4725920  40.1270090  82.7884900
  79.0292330  37.5739680  85.5105950  79.3709140  38.4181730  85.2159820
  78.0908140  37.7223420  85.6271290  79.8098950  47.4705700  87.4958180
  80.4272950  48.1456780  87.2142630  78.9492070  47.8793680  87.4045680
  75.1031290  46.6605560  76.3765030  74.7259270  47.1492660  75.6449930
  75.3604360  47.3330840  77.0071560  90.7276540  48.9345110  85.4112820
  90.0440060  49.6044220  85.4029490  91.2670830  49.1325760  84.6457680
  92.1800680  38.7624770  83.5394550  91.2325590  38.7963750  83.6709980
  92.5050670  39.5763720  83.9243910  82.7120220  35.0621950  81.8350540
  83.0195200  34.5068840  81.1186040  81.7820920  35.1966410  81.6523530
  88.2635280  50.7789240  84.1258000  88.2762440  50.3751530  83.2580260
  87.7110500  51.5536530  84.0219430  89.5580700  47.5005460  79.2148170
  89.4477030  46.5579790  79.3397590  89.5548950  47.8621100  80.1010930
  87.6620720  45.6819080  85.4540610  88.0789510  45.4679190  84.6194070
  88.3860540  45.9391870  86.0249230  85.1000980  43.1270780  78.5710660
  84.1730260  43.0608160  78.7999130  85.2525800  44.0650910  78.4565900
  85.0870060  39.3987780  75.5677820  84.1473730  39.5601740  75.6530280
  85.4053320  40.1173460  75.0213810  91.6082820  44.0806300  85.5456850
  90.7801450  44.1499390  85.0706980  92.2033300  44.6660610  85.0772680
  89.1298270  44.6891080  79.0745910  88.5110690  44.3510630  78.4272210
  89.1122720  44.0450840  79.7825100  88.5724830  40.8675620  86.4911720
  88.1596010  41.6929330  86.7451710  87.8400780  40.2820660  86.2988080
  80.7057620  43.6535520  81.3530390  80.3014620  42.9412770  80.8576290
  80.7920740  43.3088760  82.2418430  81.1739320  47.3403080  83.5169600
  80.8767610  46.7348550  82.8377380  82.1239140  47.3780390  83.4058960
  79.4186240  40.4278730  85.1329430  79.9700830  40.5374070  84.3582680
  79.9329750  40.8016330  85.8484660  89.2624930  50.9134950  87.1792700
  88.7855490  51.7207140  86.9865310  88.5786720  50.2613280  87.3318910
  87.3062970  43.9277890  76.0818660  87.7456250  43.0900320  75.9356480
  88.0191390  44.5607290  76.1682800  79.0928970  43.9498090  88.7434770
  78.9536740  44.8220890  89.1122170  78.2110330  43.6070900  88.5982710
  85.4158350  48.8673960  80.0499900  85.8554260  49.6098290  79.6355290
  85.3545240  49.1100530  80.9738860  90.8880110  35.1820700  74.3959700
  90.5752770  35.2747530  75.2958770  91.6492580  35.7601730  74.3457130
  77.4062250  42.5480500  78.8537040  77.2859850  43.2742590  78.2418310
  77.0963140  41.7783410  78.3764950  75.0447620  45.7195640  84.6605680
  75.1228040  45.8544410  83.7161400  75.6589300  45.0111530  84.8533800
  76.2895250  47.4195830  81.0711860  75.8823330  47.5610420  80.2165460
  77.1808260  47.1355990  80.8683070  86.1074130  51.5687740  87.9778910
  86.6218800  51.4795750  88.7801340  85.2643210  51.9147440  88.2706820
  88.0828530  51.8543080  77.4062910  87.9229670  51.5646020  78.3044740
  87.9175240  51.0783210  76.8708140  80.5616910  51.6341610  79.1834530
  80.3859390  50.7177150  78.9702330  79.7072650  51.9928900  79.4232330
  87.7854660  49.3630640  75.9660910  87.0919820  49.3607930  75.3063190
  88.5277520  48.9389960  75.5355080  87.3504590  50.9893350  80.0409400
  87.8061540  50.2082730  80.3548020  87.6897110  51.7000170  80.5850580
  75.1007140  46.7609810  87.2000140  75.2638180  46.2915170  86.3819510
  75.5659590  46.2533370  87.8648980  79.8725910  35.8915570  82.2360710
  79.4294060  36.6725110  81.9045230  80.4310900  36.2145460  82.9431650
  84.1595720  38.7584090  87.8396030  83.6975090  38.9667110  88.6515970
  83.7573830  37.9443440  87.5366700  82.9884730  35.5126270  77.1166540
  82.3638910  35.5086140  77.8419850  82.9014850  34.6457230  76.7202510
  81.9101810  36.4362900  84.0950310  82.2074140  37.3425730  84.0142330
  82.4587370  35.9481680  83.4809880  79.6640130  41.0149140  79.9641960
  79.4381050  40.7986310  80.8688580  78.8832660  41.4477600  79.6187930
  86.8937890  41.0212510  78.5632610  86.2946780  41.7448310  78.3796230
  87.4417500  40.9589290  77.7809060  85.5002760  39.6576050  80.5935890
  85.8932330  39.9748250  79.7804580  85.8619610  38.7787930  80.7080410
  77.2349880  38.3248390  88.7836010  76.8413270  39.1723600  88.9908790
  76.5468280  37.6874760  88.9744650  74.5366930  36.2476850  82.8166090
  74.2479980  36.8179710  83.5291070  75.2812690  35.7681300  83.1797320
  74.7237160  40.1896970  74.0268810  74.6411830  41.1327730  74.1683800
  74.3720220  40.0471880  73.1481160  86.0857900  42.2481800  84.6886670
  85.3539020  42.7568610  85.0376770  85.6882240  41.4311780  84.3875450
  82.5235290  38.9236000  83.0939160  82.5271350  38.4825950  82.2443700
  83.4186410  39.2453330  83.2010980  78.3737670  38.8062490  82.0533370
  78.0337720  39.2837720  82.8100420  77.6114990  38.3527610  81.6934470
  82.5855440  39.9248080  76.0845920  82.7068260  39.8834560  77.0331740
  82.2003950  40.7872230  75.9292650  86.5483810  37.7015480  84.1009610
  86.5656550  38.1524130  84.9451460  86.2999390  36.8021120  84.3143050
  81.5976940  42.2349220  75.4829220  81.0293840  41.7867470  74.8565130
  82.3065940  42.5942000  74.9494370  82.8243260  42.9837780  84.8404570
  83.1913390  42.5096350  85.5865910  82.6348320  43.8579350  85.1812910
  75.6883750  37.7281470  80.9698040  75.4030670  37.3637140  81.8076660
  75.6262610  36.9961930  80.3561180  80.6142630  42.0246420  87.1588780
  80.3099700  42.9038400  87.3839140  81.5689090  42.0846210  87.1946220
  79.1424420  46.2307410  77.7555630  78.3686680  45.6905030  77.5954350
  79.8719050  45.7114020  77.4173390  89.9012400  45.2272770  83.5482020
  90.6211520  45.7228060  83.1578130  89.6994220  44.5490660  82.9035890
  85.3622340  36.6210730  77.6911410  84.5486950  36.1223900  77.6156720
  85.1684290  37.4608980  77.2747760  88.0770730  40.9930380  75.9873570
  88.9650350  41.3047610  75.8124910  88.0475820  40.1202630  75.5954150
  79.1861820  45.8987790  81.3934440  79.7040490  45.0956050  81.3391330
  78.7345840  45.8366930  82.2351270  84.0731320  47.1654070  76.6661740
  84.4147020  47.9096300  76.1705060  83.2444030  47.4785190  77.0286570
  76.6706360  42.8649160  88.3060140  76.3121300  43.5303010  88.8933480
  76.3760920  42.0332710  88.6772760  90.3485000  42.3042220  75.4553430
  90.2648720  42.7356440  74.6049870  91.0679190  42.7640570  75.8880250
  91.4259140  44.7609740  88.5323400  90.7007330  45.3538520  88.3352790
  91.9534600  44.7533280  87.7336770  91.3772250  49.1584480  78.1835560
  90.7348410  48.5040100  78.4579280  90.9902910  49.5639570  77.4076230
  86.9558730  46.4869910  82.0307250  87.3082550  45.8898040  81.3708620
  86.0721060  46.1614140  82.2015500  83.0422010  47.2467600  79.4377660
  83.7293140  47.7936810  79.8185250  82.2554430  47.7908330  79.4727270
  75.1814410  42.8640420  74.9294740  76.0509260  43.1465220  75.2130660
  74.6904730  43.6776290  74.8143550  82.3449220  44.2513630  79.0503020
  82.8012000  45.0618880  79.2763210  81.9937430  43.9336770  79.8821510
  84.6481830  49.7619970  86.2795320  85.2924050  49.9679350  86.9568740
  85.0111270  49.0008370  85.8266170  78.2461000  34.5951280  79.5225540
  78.1175630  34.5869180  80.4710460  77.4223020  34.9334370  79.1716550
  85.9213910  47.7652320  84.9972770  86.5636140  47.0645480  85.1104940
  86.4463260  48.5450760  84.8169660  89.7669630  48.0500940  74.7211910
  89.5407210  47.3331380  75.3136550  89.3765830  47.8013380  73.8833660
  87.6951530  48.5647220  88.2008830  88.0307770  49.1513910  88.8786750
  86.7751870  48.4339930  88.4306620  75.5485660  52.0767800  75.4956370
  75.9083300  52.6757140  74.8413640  75.4078000  52.6227690  76.2691400
  89.3485880  45.9672880  76.3826070  89.0607580  46.4285570  77.1703950
  90.1438050  45.5070650  76.6510290  81.5654280  49.4599000  76.3130040
  81.5564380  50.1928690  75.6974550  80.6452640  49.2130580  76.4057000
  77.1660920  44.6813890  77.0576800  76.5588870  45.4212790  77.0672100
  77.6410270  44.7713250  76.2315000  86.7393710  38.8464710  86.7333690
  87.1074530  38.0259920  87.0613260  85.8791910  38.9066600  87.1489340
  90.1055740  37.8021650  77.5421250  89.4768900  37.9067320  76.8279480
  89.6107660  38.0218430  78.3315130  84.5513880  49.5227240  74.9755230
  84.6525860  49.3191230  74.0457210  83.6515620  49.2685520  75.1803010
  82.0739770  40.0807600  78.9579130  81.3655920  40.5493940  79.3992740
  82.3584250  39.4229610  79.5924320  83.6995700  41.5004300  86.9571660
  84.1980950  41.9750120  87.6223510  83.8418650  40.5767820  87.1641690
  86.1055200  36.8058260  80.3974920  85.9822980  36.8244390  79.4484430
  87.0539760  36.8537200  80.5173320  83.1931990  52.0413560  79.6702900
  83.4473490  52.0034950  78.7482270  82.2444470  51.9146890  79.6631150
  80.2774790  38.3892680  76.3329840  81.1265320  38.8262830  76.2670030
  79.9106060  38.7012940  77.1601900  90.9062560  37.7172260  87.8000050
  90.4036160  38.4577660  88.1393860  91.7219220  38.1056260  87.4836840
  89.1984570  42.9605440  81.2461410  88.2574710  42.9755670  81.4209100
  89.5128640  42.1741400  81.6921710  79.1766210  44.6425040  74.8065370
  79.9429480  44.5306400  75.3690800  79.2540900  43.9463010  74.1542140
  77.8712970  42.0750110  75.4898260  77.9516560  41.1277620  75.6015660
  78.7632720  42.4056990  75.5958920  91.2010150  50.1314290  82.9215670
  91.3257570  50.9545460  83.3939480  92.0675710  49.9205020  82.5739820
  78.6727680  52.2245500  82.5932800  79.4090160  51.6760960  82.8641370
  79.0568600  53.0901510  82.4538790  75.5573160  48.2919070  78.4674310
  74.6312940  48.5340210  78.4579720  76.0229590  49.1193330  78.3459060
  81.7829990  51.3975810  74.4158370  82.5758600  51.6864640  73.9640160
  81.2634340  50.9667980  73.7370850  90.8360160  50.6245940  75.8395110
  90.5501670  50.2111080  75.0249290  90.6379710  51.5533650  75.7195630
  82.3007390  46.6179220  74.2800720  82.1958030  46.0031570  75.0062100
  82.1331610  46.0945110  73.4963730  85.5410120  45.6799250  74.8842710
  84.9920220  46.1268550  75.5285450  86.1629380  45.1748500  75.4080380
  81.2085240  44.6390170  76.7808010  81.6301660  44.4730040  77.6239400
  81.3336080  43.8290400  76.2863150  83.7212880  43.6627780  74.0285110
  84.2418540  42.9476800  73.6626260  84.3681280  44.3013650  74.3285620
  82.6246400  36.1422330  86.7003670  82.1763700  36.1646590  85.8549220
  81.9911600  35.7441350  87.2973970  83.0305950  45.0376660  87.3216110
  83.4494060  45.8809390  87.1492350  82.1114580  45.1748700  87.0922890
  87.7057750  43.3230030  87.2816460  87.1792970  43.8472650  86.6781600
  88.0489090  43.9557420  87.9126190  80.1044140  40.7123400  73.7266170
  79.9033200  39.8490760  74.0879510  79.9336190  40.6256760  72.7887770
  80.8813370  51.3429670  88.4373840  80.3434460  52.0675730  88.1182540
  81.1347330  50.8660010  87.6471180  87.5832450  35.5231630  76.2553050
  87.8634740  34.6799530  76.6112470  86.8098180  35.7554740  76.7691800
  78.9026940  37.8124020  73.7144050  79.2052840  37.8191450  72.8063200
  79.6421530  37.4621880  74.2111710  83.7375580  52.5780880  88.6960490
  83.6634280  53.4816020  89.0032860  82.8354420  52.2592780  88.6682560
  82.1211870  36.7558640  74.7000250  81.7733870  36.0782630  74.1202700
  82.3224640  36.2948150  75.5143640  84.2860910  51.7439390  76.3186850
  85.1811700  52.0824360  76.3405610  84.3178540  51.0218800  75.6911130
  77.9257070  47.1166440  74.5473850  78.3631940  47.6596110  75.2031430
  78.4104800  46.2913390  74.5570190  75.1402870  49.9055470  81.9994110
  75.4705880  49.0376530  81.7672750  75.5693870  50.1113990  82.8299070
  79.7364790  48.2364480  79.6596080  79.4360330  48.1129450  80.5599990
  79.6302280  47.3773070  79.2511810  75.6293080  50.7726060  84.7375740
  75.1924070  50.9526860  85.5699890  76.1970760  51.5300680  84.5957460
  92.5056710  48.0160880  74.3622760  91.6749670  48.0837530  74.8329990
  92.6828540  48.9065000  74.0589620  91.9613170  44.7608360  76.8656960
  92.7232080  45.3305010  76.9716650  91.9767540  44.1935560  77.6365270
  75.4617510  43.2846290  81.0964620  74.8066350  43.0157930  80.4524320
  76.2995460  43.1750770  80.6466600  92.9673140  45.6158460  81.7098890
  93.3381970  44.8325780  81.3034860  93.6075070  46.3047560  81.5316190
  89.9506900  46.9995040  87.1229210  89.1366740  47.4292200  87.3855000
  90.3581100  47.6113450  86.5098260  92.0132340  45.0542730  74.0229480
  92.2881180  45.9621610  73.8948700  91.8243080  44.9905260  74.9591470
  88.4107950  38.0787580  75.3183110  88.8292830  37.8918560  74.4779770
  88.1044010  37.2266630  75.6286040  91.9097680  42.9911720  79.0158910
  91.5341280  42.2239650  78.5840200  91.1800800  43.3734420  79.5033840
  76.4993440  43.6698860  85.6367960  76.8666480  43.5826260  86.5163980
  75.9304260  42.9065410  85.5374820  91.2997300  42.1383240  88.6498430
  91.0683390  41.9095990  87.7496380  91.5601850  43.0582790  88.6043320
  74.6755590  40.4945220  77.0389950  73.7719670  40.7575420  76.8641610
  75.1596210  40.7656390  76.2589910  91.1848640  41.2169210  82.3166150
  91.7086120  40.7231860  81.6856320  91.7708060  41.3519570  83.0613720
  91.3638360  41.3009080  85.8385700  90.4141070  41.2672620  85.9530690
  91.5451370  42.2109190  85.6035470  77.2182800  39.5510760  74.9484330
  77.9274500  39.1293980  74.4631610  76.5022740  39.6185990  74.3167680
  76.8656960  35.6050090  73.9886980  77.5885090  36.1459030  74.3068200
  77.1381480  35.3313510  73.1128520  90.6748610  40.4742560  78.2558560
  91.1707730  40.2413430  79.0407440  90.4764680  39.6354400  77.8396200
  76.5549150  34.8556280  83.8909600  77.2025340  34.3053660  83.4504760
  76.9750990  35.1099430  84.7125410  92.1035770  39.1103510  80.7896240
  91.9935050  38.9559550  81.7278510  92.8643360  38.5824450  80.5471650
  90.4501490  35.0497640  87.2479240  91.0873710  35.6631780  87.6138430
  90.5976380  35.0858300  86.3028470  92.9926040  36.9411430  74.0302380
  93.9175350  36.8092610  73.8220670  92.9701830  37.0204250  74.9838830
  93.0664530  37.7122090  76.6559090  92.2716030  37.6467210  77.1852000
  93.2707810  38.6472730  76.6444440  90.0082950  51.7513640  80.6497480
  90.6042020  51.4298210  79.9731900  90.2661100  51.2785460  81.4410750
  76.3081150  35.0111950  86.6334920  75.9595970  35.4675770  87.3993100
  75.9768850  34.1169080  86.7157350  81.6151550  49.7391140  86.3997830
  81.3742910  50.0065700  85.5128350  82.5554190  49.9096870  86.4548690
  92.8755710  51.7585520  87.2008470  92.3813990  52.1554390  86.4835600
  92.2669000  51.1334730  87.5945750  77.7533550  51.1293800  87.9185890
  77.1593870  50.9978500  88.6575930  77.7457390  50.2931940  87.4527990
  87.1988570  34.4226030  86.1215920  86.3248410  34.7561140  85.9188850
  87.0899320  33.9499210  86.9467790  88.1060550  36.6296900  87.5057640
  87.7773910  35.8148660  87.1259370  89.0542850  36.5866710  87.3823330
  90.5595160  52.4008940  84.4795210  90.0998130  53.1524750  84.1053230
  89.9307620  51.6815410  84.4210010  77.3845780  48.4952180  86.8693930
  76.6579840  47.8757470  86.8019880  77.4454930  48.8892790  85.9992010
  80.9890880  50.7097180  83.6543340  81.5055900  50.0984540  83.1291600
  81.6388260  51.2125960  84.1454350  83.7286380  51.6005670  84.4812320
  84.0164190  51.3459970  83.6045330  84.2409600  51.0483030  85.0717890
  84.9463390  35.3395870  85.0608830  84.1635180  35.8141370  85.3405590
  84.6526320  34.4350700  84.9522010  89.4984460  36.0418970  83.1057920
  89.9392550  35.9864070  82.2579520  89.2292050  36.9576980  83.1768100
  91.3623030  35.6734210  81.1166740  91.3011430  34.7295430  80.9697760
  92.1415060  35.7814300  81.6620200  75.6675780  51.8126570  80.0790690
  75.4997820  51.1797250  80.7772580  74.8010290  52.0185970  79.7284880
  76.2903800  35.6443350  77.5822550  77.0483160  35.7572230  77.0086580
  75.8280970  36.4812550  77.5365980  82.8317610  37.7582620  80.5724860
  82.0192120  37.3839510  80.2320740  83.3359250  37.0027700  80.8746050
  87.3342590  34.4225070  81.8107930  87.9371960  34.9945280  82.2856450
  86.5935580  34.9864510  81.5881830  90.4777190  34.8246630  77.0848210
  90.6727820  35.7230080  77.3515640  89.6907060  34.5933710  77.5781160
  77.2738480  50.5059800  77.5240830  76.7486100  50.8867830  76.8202790
  77.1983060  51.1310570  78.2450540  78.6628950  36.1707400  76.1224520
  79.1921710  35.3837200  75.9932470  79.2957270  36.8498590  76.3560050
  80.8566790  35.9082540  79.1769910  80.2269530  35.2069850  79.3440040
  80.3171930  36.6686670  78.9603070  92.0303800  52.0647340  78.8454770
  92.2055990  51.3785080  78.2015690  91.3325370  52.5894390  78.4531440
  79.8731450  52.4542180  76.3990080  80.6050270  52.1701460  75.8513970
  80.1325120  52.2155460  77.2889460  79.0346240  48.5706910  76.4036410
  78.4055120  49.0392010  76.9522240  79.1494070  47.7256130  76.8382600
  86.4895960  42.6212570  62.5537610  86.4090010  41.7067180  62.2829320
  86.0760380  43.1179640  61.8477320  84.6214000  44.3991590  64.4346880
  83.8456100  43.9192030  64.7245450  85.2726930  43.7197240  64.2603040
  78.6379830  44.7111400  65.3122640  77.8064710  44.4560110  65.7119150
  79.2460810  44.7822170  66.0480560  88.6421430  48.8051780  63.2146010
  88.1802960  48.0339020  63.5433180  89.4546980  48.8317850  63.7198460
  78.6181090  48.7451490  65.5080660  78.9209130  47.8549230  65.3290880
  79.3624680  49.3021710  65.2802910  75.0104790  42.2718940  64.9804730
  75.5820900  41.5041140  64.9808370  75.0106330  42.5707700  64.0711340
  84.8684740  51.0909790  62.8350000  84.2496180  51.5467290  62.2644440
  85.7236520  51.2461250  62.4339700  84.0622990  47.0748780  64.4417040
  83.9931270  46.1338720  64.2806170  84.8242850  47.1650190  65.0139610
  76.2529660  37.6803300  66.7673660  76.0732500  36.7829050  67.0476420
  75.8509740  38.2275170  67.4420610  85.0928160  39.8819160  64.6685970
  85.4692980  39.0091040  64.5559640  84.9947670  40.2177860  63.7776410
  79.2233170  38.2544790  60.1303410  79.3299920  39.1548520  60.4372170
  78.3125530  38.2062760  59.8398060  88.8752280  37.3769600  61.6014310
  89.6961900  36.8866170  61.6439790  88.9086360  37.9667260  62.3546150
  76.8716330  40.1763800  65.3756000  77.5526440  40.4402170  65.9943400
  76.5564380  39.3364670  65.7094010  81.0640900  41.2231160  64.4628590
  81.5719120  41.7212130  65.1033610  81.5954140  40.4466360  64.2867950
  93.1651830  39.3936350  68.1657940  92.4604000  39.7818060  67.6473050
  93.4309750  40.0886640  68.7678870  79.3477000  35.8629720  68.7292010
  79.3495440  36.3802110  67.9237910  78.5181310  35.3859900  68.7061940
  85.7348090  45.9749030  60.2281910  85.1165360  46.4398480  59.6644630
  86.2471340  46.6676510  60.6451420  80.5979850  45.5024900  66.9065510
  80.2649230  46.1293820  67.5486580  80.7746530  46.0286780  66.1267180
  89.1113760  39.3169980  64.3741850  88.4069330  39.6054870  64.9544960
  89.4725920  40.1270090  64.0141410  79.0292330  37.5739680  66.7362460
  79.3709140  38.4181730  66.4416330  78.0908140  37.7223420  66.8527800
  79.8098950  47.4705700  68.7214690  80.4272950  48.1456780  68.4399140
  78.9492070  47.8793680  68.6302190  90.7276540  48.9345110  66.6369330
  90.0440060  49.6044220  66.6286000  91.2670830  49.1325760  65.8714190
  92.1800680  38.7624770  64.7651060  91.2325590  38.7963750  64.8966490
  92.5050670  39.5763720  65.1500420  82.7120220  35.0621950  63.0607050
  83.0195200  34.5068840  62.3442550  81.7820920  35.1966410  62.8780040
  88.2635280  50.7789240  65.3514510  88.2762440  50.3751530  64.4836770
  87.7110500  51.5536530  65.2475940  89.5580700  47.5005460  60.4404680
  89.4477030  46.5579790  60.5654100  89.5548950  47.8621100  61.3267440
  87.6620720  45.6819080  66.6797120  88.0789510  45.4679190  65.8450580
  88.3860540  45.9391870  67.2505740  85.1000980  43.1270780  59.7967170
  84.1730260  43.0608160  60.0255640  85.2525800  44.0650910  59.6822410
  85.0870060  39.3987780  56.7934330  84.1473730  39.5601740  56.8786790
  85.4053320  40.1173460  56.2470320  91.6082820  44.0806300  66.7713360
  90.7801450  44.1499390  66.2963490  92.2033300  44.6660610  66.3029190
  89.1298270  44.6891080  60.3002420  88.5110690  44.3510630  59.6528720
  89.1122720  44.0450840  61.0081610  88.5724830  40.8675620  67.7168230
  88.1596010  41.6929330  67.9708220  87.8400780  40.2820660  67.5244590
  80.7057620  43.6535520  62.5786900  80.3014620  42.9412770  62.0832800
  80.7920740  43.3088760  63.4674940  81.1739320  47.3403080  64.7426110
  80.8767610  46.7348550  64.0633890  82.1239140  47.3780390  64.6315470
  79.4186240  40.4278730  66.3585940  79.9700830  40.5374070  65.5839190
  79.9329750  40.8016330  67.0741170  89.2624930  50.9134950  68.4049210
  88.7855490  51.7207140  68.2121820  88.5786720  50.2613280  68.5575420
  80.2657750  47.0784770  71.3933910  79.3686280  47.3024740  71.6407310
  80.2910620  47.2019710  70.4445310  87.3062970  43.9277890  57.3075170
  87.7456250  43.0900320  57.1612990  88.0191390  44.5607290  57.3939310
  79.0928970  43.9498090  69.9691280  78.9536740  44.8220890  70.3378680
  78.2110330  43.6070900  69.8239220  85.4158350  48.8673960  61.2756410
  85.8554260  49.6098290  60.8611800  85.3545240  49.1100530  62.1995370
  80.8909320  49.8919790  72.1776430  80.8624750  50.2962740  71.3104860
  80.7274290  48.9630150  72.0148030  90.8880110  35.1820700  55.6216210
  90.5752770  35.2747530  56.5215280  91.6492580  35.7601730  55.5713640
  77.4062250  42.5480500  60.0793550  77.2859850  43.2742590  59.4674820
  77.0963140  41.7783410  59.6021460  92.8424140  50.6746890  73.4740600
  93.3183860  51.1529780  74.1529680  93.4631300  50.6064380  72.7486100
  75.0447620  45.7195640  65.8862190  75.1228040  45.8544410  64.9417910
  75.6589300  45.0111530  66.0790310  76.2895250  47.4195830  62.2968370
  75.8823330  47.5610420  61.4421970  77.1808260  47.1355990  62.0939580
  92.2457390  47.8659740  70.6340610  92.3720450  47.6271620  69.7157790
  92.2878770  47.0344280  71.1062690  86.1074130  51.5687740  69.2035420
  86.6218800  51.4795750  70.0057850  85.2643210  51.9147440  69.4963330
  88.0828530  51.8543080  58.6319420  87.9229670  51.5646020  59.5301250
  87.9175240  51.0783210  58.0964650  80.5616910  51.6341610  60.4091040
  80.3859390  50.7177150  60.1958840  79.7072650  51.9928900  60.6488840
  87.7854660  49.3630640  57.1917420  87.0919820  49.3607930  56.5319700
  88.5277520  48.9389960  56.7611590  87.3504590  50.9893350  61.2665910
  87.8061540  50.2082730  61.5804530  87.6897110  51.7000170  61.8107090
  92.0981400  39.9192200  71.5990350  91.4825670  40.4271870  71.0705810
  91.7777820  39.0190530  71.5416290  75.1007140  46.7609810  68.4256650
  75.2638180  46.2915170  67.6076020  75.5659590  46.2533370  69.0905490
  79.8725910  35.8915570  63.4617220  79.4294060  36.6725110  63.1301740
  80.4310900  36.2145460  64.1688160  84.1595720  38.7584090  69.0652540
  83.6975090  38.9667110  69.8772480  83.7573830  37.9443440  68.7623210
  89.1600230  39.9793040  70.1949200  88.3093820  39.6798790  70.5158270
  89.0002020  40.2235050  69.2833020  86.2549940  41.4794790  72.2947990
  86.5803350  40.6458540  71.9550220  87.0430270  42.0023310  72.4426320
  82.9884730  35.5126270  58.3423050  82.3638910  35.5086140  59.0676360
  82.9014850  34.6457230  57.9459020  81.9101810  36.4362900  65.3206820
  82.2074140  37.3425730  65.2398840  82.4587370  35.9481680  64.7066390
  79.6640130  41.0149140  61.1898470  79.4381050  40.7986310  62.0945090
  78.8832660  41.4477600  60.8444440  86.8937890  41.0212510  59.7889120
  86.2946780  41.7448310  59.6052740  87.4417500  40.9589290  59.0065570
  82.1039340  41.9134720  71.8558740  82.0082940  40.9729450  71.7059140
  82.9471320  42.1349790  71.4606810  85.5002760  39.6576050  61.8192400
  85.8932330  39.9748250  61.0061090  85.8619610  38.7787930  61.9336920
  77.2349880  38.3248390  70.0092520  76.8413270  39.1723600  70.2165300
  76.5468280  37.6874760  70.2001160  83.8094930  38.4083360  73.0789260
  83.1193250  38.2155560  73.7135350  84.5527230  38.6918000  73.6113560
  74.5366930  36.2476850  64.0422600  74.2479980  36.8179710  64.7547580
  75.2812690  35.7681300  64.4053830  86.0857900  42.2481800  65.9143180
  85.3539020  42.7568610  66.2633280  85.6882240  41.4311780  65.6131960
  82.5235290  38.9236000  64.3195670  82.5271350  38.4825950  63.4700210
  83.4186410  39.2453330  64.4267490  78.3737670  38.8062490  63.2789880
  78.0337720  39.2837720  64.0356930  77.6114990  38.3527610  62.9190980
  82.5855440  39.9248080  57.3102430  82.7068260  39.8834560  58.2588250
  82.2003950  40.7872230  57.1549160  86.5483810  37.7015480  65.3266120
  86.5656550  38.1524130  66.1707970  86.2999390  36.8021120  65.5399560
  81.5976940  42.2349220  56.7085730  81.0293840  41.7867470  56.0821640
  82.3065940  42.5942000  56.1750880  89.9754560  35.1147660  71.1652500
  90.3000330  34.3837320  71.6910480  90.0111070  34.7961300  70.2633490
  76.6746120  46.1361240  70.5852460  76.2900910  45.4954910  71.1835420
  76.9858310  46.8397360  71.1547190  82.8243260  42.9837780  66.0661080
  83.1913390  42.5096350  66.8122420  82.6348320  43.8579350  66.4069420
  75.6883750  37.7281470  62.1954550  75.4030670  37.3637140  63.0333170
  75.6262610  36.9961930  61.5817690  80.6142630  42.0246420  68.3845290
  80.3099700  42.9038400  68.6095650  81.5689090  42.0846210  68.4202730
  89.9012400  45.2272770  64.7738530  90.6211520  45.7228060  64.3834640
  89.6994220  44.5490660  64.1292400  85.3622340  36.6210730  58.9167920
  84.5486950  36.1223900  58.8413230  85.1684290  37.4608980  58.5004270
  85.2831200  45.2981830  70.6607530  85.2168510  44.3777500  70.4065120
  84.6536340  45.3957270  71.3752170  88.0770730  40.9930380  57.2130080
  88.9650350  41.3047610  57.0381420  88.0475820  40.1202630  56.8210660
  79.1861820  45.8987790  62.6190950  79.7040490  45.0956050  62.5647840
  78.7345840  45.8366930  63.4607780  84.0731320  47.1654070  57.8918250
  84.4147020  47.9096300  57.3961570  83.2444030  47.4785190  58.2543080
  76.6706360  42.8649160  69.5316650  76.3121300  43.5303010  70.1189990
  76.3760920  42.0332710  69.9029270  79.8719480  43.3233400  72.4156200
  79.5719620  43.4690580  71.5184020  80.6430720  42.7638690  72.3229590
  85.2147930  48.1202400  70.4111330  85.2292470  47.1883360  70.1930240
  84.5073030  48.2062160  71.0501100  90.3485000  42.3042220  56.6809940
  90.2648720  42.7356440  55.8306380  91.0679190  42.7640570  57.1136760
  91.4259140  44.7609740  69.7579910  90.7007330  45.3538520  69.5609300
  91.9534600  44.7533280  68.9593280  91.3772250  49.1584480  59.4092070
  90.7348410  48.5040100  59.6835790  90.9902910  49.5639570  58.6332740
  86.9558730  46.4869910  63.2563760  87.3082550  45.8898040  62.5965130
  86.0721060  46.1614140  63.4272010  83.0422010  47.2467600  60.6634170
  83.7293140  47.7936810  61.0441760  82.2554430  47.7908330  60.6983780
  82.3449220  44.2513630  60.2759530  82.8012000  45.0618880  60.5019720
  81.9937430  43.9336770  61.1078020  84.6481830  49.7619970  67.5051830
  85.2924050  49.9679350  68.1825250  85.0111270  49.0008370  67.0522680
  78.2461000  34.5951280  60.7482050  78.1175630  34.5869180  61.6966970
  77.4223020  34.9334370  60.3973060  85.9213910  47.7652320  66.2229280
  86.5636140  47.0645480  66.3361450  86.4463260  48.5450760  66.0426170
  89.7669630  48.0500940  55.9468420  89.5407210  47.3331380  56.5393060
  89.3765830  47.8013380  55.1090170  87.6951530  48.5647220  69.4265340
  88.0307770  49.1513910  70.1043260  86.7751870  48.4339930  69.6563130
  75.2454930  36.3542400  70.2088750  74.5313450  36.5539320  70.8141360
  75.6649970  35.5781970  70.5803550  89.3485880  45.9672880  57.6082580
  89.0607580  46.4285570  58.3960460  90.1438050  45.5070650  57.8766800
  75.5327520  50.3422660  71.1955280  75.6418640  49.4017400  71.0550670
  74.8808080  50.6077410  70.5469010  83.5240110  48.6138550  72.5953400
  83.2036980  47.8947790  73.1399090  82.8498470  49.2893620  72.6689460
  81.5654280  49.4599000  57.5386550  81.5564380  50.1928690  56.9231060
  80.6452640  49.2130580  57.6313510  86.7393710  38.8464710  67.9590200
  87.1074530  38.0259920  68.2869770  85.8791910  38.9066600  68.3745850
  90.1055740  37.8021650  58.7677760  89.4768900  37.9067320  58.0535990
  89.6107660  38.0218430  59.5571640  84.5513880  49.5227240  56.2011740
  84.6525860  49.3191230  55.2713720  83.6515620  49.2685520  56.4059520
  82.0739770  40.0807600  60.1835640  81.3655920  40.5493940  60.6249250
  82.3584250  39.4229610  60.8180830  83.6995700  41.5004300  68.1828170
  84.1980950  41.9750120  68.8480020  83.8418650  40.5767820  68.3898200
  86.1055200  36.8058260  61.6231430  85.9822980  36.8244390  60.6740940
  87.0539760  36.8537200  61.7429830  83.1931990  52.0413560  60.8959410
  83.4473490  52.0034950  59.9738780  82.2444470  51.9146890  60.8887660
  80.2774790  38.3892680  57.5586350  81.1265320  38.8262830  57.4926540
  79.9106060  38.7012940  58.3858410  90.9062560  37.7172260  69.0256560
  90.4036160  38.4577660  69.3650370  91.7219220  38.1056260  68.7093350
  89.1984570  42.9605440  62.4717920  88.2574710  42.9755670  62.6465610
  89.5128640  42.1741400  62.9178220  91.2010150  50.1314290  64.1472180
  91.3257570  50.9545460  64.6195990  92.0675710  49.9205020  63.7996330
  77.6785960  51.4091570  73.0074890  78.4798690  51.7303620  73.4210290
  77.1637780  51.0487150  73.7294800  86.5150590  47.5171440  72.9550300
  85.9088750  47.5403040  72.2146050  86.2104700  46.7854480  73.4917550
  87.9450960  51.2451730  71.5659710  88.8972710  51.1609750  71.5159950
  87.7979180  51.9093440  72.2393500  90.8360160  50.6245940  57.0651620
  90.5501670  50.2111080  56.2505800  90.6379710  51.5533650  56.9452140
  75.3983770  43.8965030  71.9510940  75.9022790  43.3172310  72.5227170
  74.6591190  44.1805260  72.4887310  82.3007390  46.6179220  55.5057230
  82.1958030  46.0031570  56.2318610  82.1331610  46.0945110  54.7220240
  82.4521710  45.3036020  71.4846460  81.6867380  45.8721020  71.4001130
  82.6337670  45.0112230  70.5914690  85.5410120  45.6799250  56.1099220
  84.9920220  46.1268550  56.7541960  86.1629380  45.1748500  56.6336890
  89.5945060  47.0341350  72.0421480  90.3354530  47.3717110  71.5388940
  88.8317740  47.2033410  71.4891250  77.4306850  42.0394620  72.8461010
  77.4712190  41.7408490  73.7546240  78.2852350  42.4402230  72.6868530
  81.2085240  44.6390170  58.0064520  81.6301660  44.4730040  58.8495910
  81.3336080  43.8290400  57.5119660  79.3712660  40.6186720  70.8135500
  78.8409120  40.1277670  70.1858840  80.0400730  41.0470920  70.2793430
  83.7212880  43.6627780  55.2541620  84.2418540  42.9476800  54.8882770
  84.3681280  44.3013650  55.5542130  88.2690720  45.0856180  70.5776690
  88.6831740  45.2401260  71.4267110  87.3341720  45.2111400  70.7402470
  88.7412890  42.4252340  72.5815840  89.3233660  41.6704660  72.4936320
  88.9174660  42.9559780  71.8047320  79.8584960  37.5849090  70.8932790
  79.7641830  36.9669840  70.1683660  79.2782350  38.3115380  70.6662700
  82.6246400  36.1422330  67.9260180  82.1763700  36.1646590  67.0805730
  81.9911600  35.7441350  68.5230480  83.0305950  45.0376660  68.5472620
  83.4494060  45.8809390  68.3748860  82.1114580  45.1748700  68.3179400
  85.3669850  42.7692840  69.9310460  85.4866060  42.1733980  70.6705300
  86.2263850  42.8062530  69.5111760  87.7057750  43.3230030  68.5072970
  87.1792970  43.8472650  67.9038110  88.0489090  43.9557420  69.1382700
  80.8813370  51.3429670  69.6630350  80.3434460  52.0675730  69.3439050
  81.1347330  50.8660010  68.8727690  82.1338620  39.3114190  71.1886280
  82.7238310  39.0030040  71.8764100  81.3158860  38.8393940  71.3446180
  86.9532050  38.9280000  71.4219300  86.2647570  38.2661540  71.3569290
  87.6738070  38.4818270  71.8667760  87.5832450  35.5231630  57.4809560
  87.8634740  34.6799530  57.8368980  86.8098180  35.7554740  57.9948310
  83.7375580  52.5780880  69.9217000  83.6634280  53.4816020  70.2289370
  82.8354420  52.2592780  69.8939070  82.1211870  36.7558640  55.9256760
  81.7733870  36.0782630  55.3459210  82.3224640  36.2948150  56.7400150
  84.2860910  51.7439390  57.5443360  85.1811700  52.0824360  57.5662120
  84.3178540  51.0218800  56.9167640  79.7364790  48.2364480  60.8852590
  79.4360330  48.1129450  61.7856500  79.6302280  47.3773070  60.4768320
  91.2655260  50.2743060  70.2509560  90.6657250  50.3335620  69.5073480
  91.3949160  49.3348040  70.3806410  92.5056710  48.0160880  55.5879270
  91.6749670  48.0837530  56.0586500  92.6828540  48.9065000  55.2846130
  91.9613170  44.7608360  58.0913470  92.7232080  45.3305010  58.1973160
  91.9767540  44.1935560  58.8621780  75.4617510  43.2846290  62.3221130
  74.8066350  43.0157930  61.6780830  76.2995460  43.1750770  61.8723110
  92.9673140  45.6158460  62.9355400  93.3381970  44.8325780  62.5291370
  93.6075070  46.3047560  62.7572700  89.9506900  46.9995040  68.3485720
  89.1366740  47.4292200  68.6111510  90.3581100  47.6113450  67.7354770
  92.0132340  45.0542730  55.2485990  92.2881180  45.9621610  55.1205210
  91.8243080  44.9905260  56.1847980  88.4107950  38.0787580  56.5439620
  88.8292830  37.8918560  55.7036280  88.1044010  37.2266630  56.8542550
  91.9097680  42.9911720  60.2415420  91.5341280  42.2239650  59.8096710
  91.1800800  43.3734420  60.7290350  76.4993440  43.6698860  66.8624470
  76.8666480  43.5826260  67.7420490  75.9304260  42.9065410  66.7631330
  91.2997300  42.1383240  69.8754940  91.0683390  41.9095990  68.9752890
  91.5601850  43.0582790  69.8299830  76.0509440  40.5807950  70.7682890
  75.1565490  40.5474710  71.1076600  76.5906990  40.7794740  71.5334140
  89.7385370  37.3639670  72.6534640  90.6155550  37.3723070  73.0368640
  89.7506210  36.6270510  72.0426990  91.1848640  41.2169210  63.5422660
  91.7086120  40.7231860  62.9112830  91.7708060  41.3519570  64.2870230
  91.3638360  41.3009080  67.0642210  90.4141070  41.2672620  67.1787200
  91.5451370  42.2109190  66.8291980  76.8656960  35.6050090  55.2143490
  77.5885090  36.1459030  55.5324710  77.1381480  35.3313510  54.3385030
  90.6748610  40.4742560  59.4815070  91.1707730  40.2413430  60.2663950
  90.4764680  39.6354400  59.0652710  76.5549150  34.8556280  65.1166110
  77.2025340  34.3053660  64.6761270  76.9750990  35.1099430  65.9381920
  92.1035770  39.1103510  62.0152750  91.9935050  38.9559550  62.9535020
  92.8643360  38.5824450  61.7728160  90.4501490  35.0497640  68.4735750
  91.0873710  35.6631780  68.8394940  90.5976380  35.0858300  67.5284980
  92.9926040  36.9411430  55.2558890  93.9175350  36.8092610  55.0477180
  92.9701830  37.0204250  56.2095340  93.0664530  37.7122090  57.8815600
  92.2716030  37.6467210  58.4108510  93.2707810  38.6472730  57.8700950
  90.0082950  51.7513640  61.8753990  90.6042020  51.4298210  61.1988410
  90.2661100  51.2785460  62.6667260  76.3081150  35.0111950  67.8591430
  75.9595970  35.4675770  68.6249610  75.9768850  34.1169080  67.9413860
  77.9145520  48.1831550  72.0244620  77.8715150  47.8124460  72.9059080
  78.0456530  49.1209120  72.1646440  81.6151550  49.7391140  67.6254340
  81.3742910  50.0065700  66.7384860  82.5554190  49.9096870  67.6805200
  83.8205970  36.2023830  71.3810850  83.7594860  36.7945660  72.1306260
  84.7606350  36.0949790  71.2361110  86.4580530  35.8593890  71.0203140
  87.0720940  36.1773180  70.3584220  87.0030090  35.3742480  71.6399000
  92.8755710  51.7585520  68.4264980  92.3813990  52.1554390  67.7092110
  92.2669000  51.1334730  68.8202260  76.9801790  34.5388150  71.1342200
  77.5284780  34.3576200  70.3708310  77.0457100  33.7482260  71.6698510
  77.7533550  51.1293800  69.1442400  77.1593870  50.9978500  69.8832440
  77.7457390  50.2931940  68.6784500  87.1988570  34.4226030  67.3472430
  86.3248410  34.7561140  67.1445360  87.0899320  33.9499210  68.1724300
  88.1060550  36.6296900  68.7314150  87.7773910  35.8148660  68.3515880
  89.0542850  36.5866710  68.6079840  90.5595160  52.4008940  65.7051720
  90.0998130  53.1524750  65.3309740  89.9307620  51.6815410  65.6466520
  77.3845780  48.4952180  68.0950440  76.6579840  47.8757470  68.0276390
  77.4454930  48.8892790  67.2248520  80.9890880  50.7097180  64.8799850
  81.5055900  50.0984540  64.3548110  81.6388260  51.2125960  65.3710860
  83.7286380  51.6005670  65.7068830  84.0164190  51.3459970  64.8301840
  84.2409600  51.0483030  66.2974400  84.9463390  35.3395870  66.2865340
  84.1635180  35.8141370  66.5662100  84.6526320  34.4350700  66.1778520
  89.4984460  36.0418970  64.3314430  89.9392550  35.9864070  63.4836030
  89.2292050  36.9576980  64.4024610  91.3623030  35.6734210  62.3423250
  91.3011430  34.7295430  62.1954270  92.1415060  35.7814300  62.8876710
  76.2903800  35.6443350  58.8079060  77.0483160  35.7572230  58.2343090
  75.8280970  36.4812550  58.7622490  82.8317610  37.7582620  61.7981370
  82.0192120  37.3839510  61.4577250  83.3359250  37.0027700  62.1002560
  87.3342590  34.4225070  63.0364440  87.9371960  34.9945280  63.5112960
  86.5935580  34.9864510  62.8138340  90.4777190  34.8246630  58.3104720
  90.6727820  35.7230080  58.5772150  89.6907060  34.5933710  58.8037670
  78.6628950  36.1707400  57.3481030  79.1921710  35.3837200  57.2188980
  79.2957270  36.8498590  57.5816560  80.8566790  35.9082540  60.4026420
  80.2269530  35.2069850  60.5696550  80.3171930  36.6686670  60.1859580
  83.7958740  52.5221770  73.0737030  84.7226050  52.2866040  73.1172990
  83.7809170  53.3493770  72.5923060  92.0303800  52.0647340  60.0711280
  92.2055990  51.3785080  59.4272200  91.3325370  52.5894390  59.6787950
  80.9822350  35.1866520  72.8378910  80.7006620  35.6900120  72.0739730
  81.3642050  34.3888270  72.4721040  87.5837810  34.6020100  73.4159380
  87.4703260  34.9214710  74.3110900  88.4007550  35.0032610  73.1196660
  90.3636300  51.7491630  72.8978070  91.1561620  51.2540860  72.6904030
  90.6569450  52.4281770  73.5053680  90.7276540  48.9345110  47.8625840
  90.0440060  49.6044220  47.8542510  91.2670830  49.1325760  47.0970700
  85.0870060  39.3987780  38.0190840  84.1473730  39.5601740  38.1043300
  85.4053320  40.1173460  37.4726830  89.2624930  50.9134950  49.6305720
  88.7855490  51.7207140  49.4378330  88.5786720  50.2613280  49.7831930
  90.8880110  35.1820700  36.8472720  90.5752770  35.2747530  37.7471790
  91.6492580  35.7601730  36.7970150  92.8424140  50.6746890  54.6997110
  93.3183860  51.1529780  55.3786190  93.4631300  50.6064380  53.9742610
  92.2457390  47.8659740  51.8597120  92.3720450  47.6271620  50.9414300
  92.2878770  47.0344280  52.3319200  86.1074130  51.5687740  50.4291930
  86.6218800  51.4795750  51.2314360  85.2643210  51.9147440  50.7219840
  88.0828530  51.8543080  39.8575930  87.9229670  51.5646020  40.7557760
  87.9175240  51.0783210  39.3221160  87.7854660  49.3630640  38.4173930
  87.0919820  49.3607930  37.7576210  88.5277520  48.9389960  37.9868100
  87.3504590  50.9893350  42.4922420  87.8061540  50.2082730  42.8061040
  87.6897110  51.7000170  43.0363600  92.0981400  39.9192200  52.8246860
  91.4825670  40.4271870  52.2962320  91.7777820  39.0190530  52.7672800
  82.9884730  35.5126270  39.5679560  82.3638910  35.5086140  40.2932870
  82.9014850  34.6457230  39.1715530  83.8094930  38.4083360  54.3045770
  83.1193250  38.2155560  54.9391860  84.5527230  38.6918000  54.8370070
  74.7237160  40.1896970  36.4781830  74.6411830  41.1327730  36.6196820
  74.3720220  40.0471880  35.5994180  81.5976940  42.2349220  37.9342240
  81.0293840  41.7867470  37.3078150  82.3065940  42.5942000  37.4007390
  89.9754560  35.1147660  52.3909010  90.3000330  34.3837320  52.9166990
  90.0111070  34.7961300  51.4890000  85.3622340  36.6210730  40.1424430
  84.5486950  36.1223900  40.0669740  85.1684290  37.4608980  39.7260780
  85.2147930  48.1202400  51.6367840  85.2292470  47.1883360  51.4186750
  84.5073030  48.2062160  52.2757610  90.3485000  42.3042220  37.9066450
  90.2648720  42.7356440  37.0562890  91.0679190  42.7640570  38.3393270
  91.4259140  44.7609740  50.9836420  90.7007330  45.3538520  50.7865810
  91.9534600  44.7533280  50.1849790  91.3772250  49.1584480  40.6348580
  90.7348410  48.5040100  40.9092300  90.9902910  49.5639570  39.8589250
  75.1814410  42.8640420  37.3807760  76.0509260  43.1465220  37.6643680
  74.6904730  43.6776290  37.2656570  78.2461000  34.5951280  41.9738560
  78.1175630  34.5869180  42.9223480  77.4223020  34.9334370  41.6229570
  89.7669630  48.0500940  37.1724930  89.5407210  47.3331380  37.7649570
  89.3765830  47.8013380  36.3346680  87.6951530  48.5647220  50.6521850
  88.0307770  49.1513910  51.3299770  86.7751870  48.4339930  50.8819640
  83.5240110  48.6138550  53.8209910  83.2036980  47.8947790  54.3655600
  82.8498470  49.2893620  53.8945970  90.1055740  37.8021650  39.9934270
  89.4768900  37.9067320  39.2792500  89.6107660  38.0218430  40.7828150
  84.5513880  49.5227240  37.4268250  84.6525860  49.3191230  36.4970230
  83.6515620  49.2685520  37.6316030  80.2774790  38.3892680  38.7842860
  81.1265320  38.8262830  38.7183050  79.9106060  38.7012940  39.6114920
  79.1766210  44.6425040  37.2578390  79.9429480  44.5306400  37.8203820
  79.2540900  43.9463010  36.6055160  91.2010150  50.1314290  45.3728690
  91.3257570  50.9545460  45.8452500  92.0675710  49.9205020  45.0252840
  81.7829990  51.3975810  36.8671390  82.5758600  51.6864640  36.4153180
  81.2634340  50.9667980  36.1883870  86.5150590  47.5171440  54.1806810
  85.9088750  47.5403040  53.4402560  86.2104700  46.7854480  54.7174060
  87.9450960  51.2451730  52.7916220  88.8972710  51.1609750  52.7416460
  87.7979180  51.9093440  53.4650010  90.8360160  50.6245940  38.2908130
  90.5501670  50.2111080  37.4762310  90.6379710  51.5533650  38.1708650
  82.3007390  46.6179220  36.7313740  82.1958030  46.0031570  37.4575120
  82.1331610  46.0945110  35.9476750  89.5945060  47.0341350  53.2677990
  90.3354530  47.3717110  52.7645450  88.8317740  47.2033410  52.7147760
  83.7212880  43.6627780  36.4798130  84.2418540  42.9476800  36.1139280
  84.3681280  44.3013650  36.7798640  88.7412890  42.4252340  53.8072350
  89.3233660  41.6704660  53.7192830  88.9174660  42.9559780  53.0303830
  80.1044140  40.7123400  36.1779190  79.9033200  39.8490760  36.5392530
  79.9336190  40.6256760  35.2400790  87.5832450  35.5231630  38.7066070
  87.8634740  34.6799530  39.0625490  86.8098180  35.7554740  39.2204820
  78.9026940  37.8124020  36.1657070  79.2052840  37.8191450  35.2576220
  79.6421530  37.4621880  36.6624730  83.7375580  52.5780880  51.1473510
  83.6634280  53.4816020  51.4545880  82.8354420  52.2592780  51.1195580
  82.1211870  36.7558640  37.1513270  81.7733870  36.0782630  36.5715720
  82.3224640  36.2948150  37.9656660  84.2860910  51.7439390  38.7699870
  85.1811700  52.0824360  38.7918630  84.3178540  51.0218800  38.1424150
  91.2655260  50.2743060  51.4766070  90.6657250  50.3335620  50.7329990
  91.3949160  49.3348040  51.6062920  92.5056710  48.0160880  36.8135780
  91.6749670  48.0837530  37.2843010  92.6828540  48.9065000  36.5102640
  91.9613170  44.7608360  39.3169980  92.7232080  45.3305010  39.4229670
  91.9767540  44.1935560  40.0878290  89.9506900  46.9995040  49.5742230
  89.1366740  47.4292200  49.8368020  90.3581100  47.6113450  48.9611280
  92.0132340  45.0542730  36.4742500  92.2881180  45.9621610  36.3461720
  91.8243080  44.9905260  37.4104490  88.4107950  38.0787580  37.7696130
  88.8292830  37.8918560  36.9292790  88.1044010  37.2266630  38.0799060
  91.2997300  42.1383240  51.1011450  91.0683390  41.9095990  50.2009400
  91.5601850  43.0582790  51.0556340  89.7385370  37.3639670  53.8791150
  90.6155550  37.3723070  54.2625150  89.7506210  36.6270510  53.2683500
  74.6755590  40.4945220  39.4902970  73.7719670  40.7575420  39.3154630
  75.1596210  40.7656390  38.7102930  77.2182800  39.5510760  37.3997350
  77.9274500  39.1293980  36.9144630  76.5022740  39.6185990  36.7680700
  76.8656960  35.6050090  36.4400000  77.5885090  36.1459030  36.7581220
  77.1381480  35.3313510  35.5641540  92.9926040  36.9411430  36.4815400
  93.9175350  36.8092610  36.2733690  92.9701830  37.0204250  37.4351850
  93.0664530  37.7122090  39.1072110  92.2716030  37.6467210  39.6365020
  93.2707810  38.6472730  39.0957460  90.0082950  51.7513640  43.1010500
  90.6042020  51.4298210  42.4244920  90.2661100  51.2785460  43.8923770
  83.8205970  36.2023830  52.6067360  83.7594860  36.7945660  53.3562770
  84.7606350  36.0949790  52.4617620  92.8755710  51.7585520  49.6521490
  92.3813990  52.1554390  48.9348620  92.2669000  51.1334730  50.0458770
  76.9801790  34.5388150  52.3598710  77.5284780  34.3576200  51.5964820
  77.0457100  33.7482260  52.8955020  90.5595160  52.4008940  46.9308230
  90.0998130  53.1524750  46.5566250  89.9307620  51.6815410  46.8723030
  76.2903800  35.6443350  40.0335570  77.0483160  35.7572230  39.4599600
  75.8280970  36.4812550  39.9879000  90.4777190  34.8246630  39.5361230
  90.6727820  35.7230080  39.8028660  89.6907060  34.5933710  40.0294180
  78.6628950  36.1707400  38.5737540  79.1921710  35.3837200  38.4445490
  79.2957270  36.8498590  38.8073070  83.7958740  52.5221770  54.2993540
  84.7226050  52.2866040  54.3429500  83.7809170  53.3493770  53.8179570
  92.0303800  52.0647340  41.2967790  92.2055990  51.3785080  40.6528710
  91.3325370  52.5894390  40.9044460  80.9822350  35.1866520  54.0635420
  80.7006620  35.6900120  53.2996240  81.3642050  34.3888270  53.6977550
  87.5837810  34.6020100  54.6415890  87.4703260  34.9214710  55.5367410
  88.4007550  35.0032610  54.3453170  90.3636300  51.7491630  54.1234580
  91.1561620  51.2540860  53.9160540  90.6569450  52.4281770  54.7310190
  86.4895960  42.6212570  25.0050630  86.4090010  41.7067180  24.7342340
  86.0760380  43.1179640  24.2990340  84.6214000  44.3991590  26.8859900
  83.8456100  43.9192030  27.1758470  85.2726930  43.7197240  26.7116060
  78.6379830  44.7111400  27.7635660  77.8064710  44.4560110  28.1632170
  79.2460810  44.7822170  28.4993580  88.6421430  48.8051780  25.6659030
  88.1802960  48.0339020  25.9946200  89.4546980  48.8317850  26.1711480
  78.6181090  48.7451490  27.9593680  78.9209130  47.8549230  27.7803900
  79.3624680  49.3021710  27.7315930  77.0471780  39.6713290  21.5478050
  76.1588480  40.0129260  21.4457930  77.3312970  39.4713610  20.6558880
  75.0104790  42.2718940  27.4317750  75.5820900  41.5041140  27.4321390
  75.0106330  42.5707700  26.5224360  84.8684740  51.0909790  25.2863020
  84.2496180  51.5467290  24.7157460  85.7236520  51.2461250  24.8852720
  84.0622990  47.0748780  26.8930060  83.9931270  46.1338720  26.7319190
  84.8242850  47.1650190  27.4652630  76.2529660  37.6803300  29.2186680
  76.0732500  36.7829050  29.4989440  75.8509740  38.2275170  29.8933630
  85.0928160  39.8819160  27.1198990  85.4692980  39.0091040  27.0072660
  84.9947670  40.2177860  26.2289430  79.2233170  38.2544790  22.5816430
  79.3299920  39.1548520  22.8885190  78.3125530  38.2062760  22.2911080
  88.8752280  37.3769600  24.0527330  89.6961900  36.8866170  24.0952810
  88.9086360  37.9667260  24.8059170  76.8716330  40.1763800  27.8269020
  77.5526440  40.4402170  28.4456420  76.5564380  39.3364670  28.1607030
  81.0640900  41.2231160  26.9141610  81.5719120  41.7212130  27.5546630
  81.5954140  40.4466360  26.7380970  93.1651830  39.3936350  30.6170960
  92.4604000  39.7818060  30.0986070  93.4309750  40.0886640  31.2191890
  79.3477000  35.8629720  31.1805030  79.3495440  36.3802110  30.3750930
  78.5181310  35.3859900  31.1574960  85.7348090  45.9749030  22.6794930
  85.1165360  46.4398480  22.1157650  86.2471340  46.6676510  23.0964440
  80.5979850  45.5024900  29.3578530  80.2649230  46.1293820  29.9999600
  80.7746530  46.0286780  28.5780200  89.1113760  39.3169980  26.8254870
  88.4069330  39.6054870  27.4057980  89.4725920  40.1270090  26.4654430
  79.0292330  37.5739680  29.1875480  79.3709140  38.4181730  28.8929350
  78.0908140  37.7223420  29.3040820  79.8098950  47.4705700  31.1727710
  80.4272950  48.1456780  30.8912160  78.9492070  47.8793680  31.0815210
  75.1031290  46.6605560  20.0534560  74.7259270  47.1492660  19.3219460
  75.3604360  47.3330840  20.6841090  90.7276540  48.9345110  29.0882350
  90.0440060  49.6044220  29.0799020  91.2670830  49.1325760  28.3227210
  92.1800680  38.7624770  27.2164080  91.2325590  38.7963750  27.3479510
  92.5050670  39.5763720  27.6013440  82.7120220  35.0621950  25.5120070
  83.0195200  34.5068840  24.7955570  81.7820920  35.1966410  25.3293060
  88.2635280  50.7789240  27.8027530  88.2762440  50.3751530  26.9349790
  87.7110500  51.5536530  27.6988960  89.5580700  47.5005460  22.8917700
  89.4477030  46.5579790  23.0167120  89.5548950  47.8621100  23.7780460
  87.6620720  45.6819080  29.1310140  88.0789510  45.4679190  28.2963600
  88.3860540  45.9391870  29.7018760  85.1000980  43.1270780  22.2480190
  84.1730260  43.0608160  22.4768660  85.2525800  44.0650910  22.1335430
  85.0870060  39.3987780  19.2447350  84.1473730  39.5601740  19.3299810
  85.4053320  40.1173460  18.6983340  91.6082820  44.0806300  29.2226380
  90.7801450  44.1499390  28.7476510  92.2033300  44.6660610  28.7542210
  89.1298270  44.6891080  22.7515440  88.5110690  44.3510630  22.1041740
  89.1122720  44.0450840  23.4594630  88.5724830  40.8675620  30.1681250
  88.1596010  41.6929330  30.4221240  87.8400780  40.2820660  29.9757610
  80.7057620  43.6535520  25.0299920  80.3014620  42.9412770  24.5345820
  80.7920740  43.3088760  25.9187960  81.1739320  47.3403080  27.1939130
  80.8767610  46.7348550  26.5146910  82.1239140  47.3780390  27.0828490
  79.4186240  40.4278730  28.8098960  79.9700830  40.5374070  28.0352210
  79.9329750  40.8016330  29.5254190  89.2624930  50.9134950  30.8562230
  88.7855490  51.7207140  30.6634840  88.5786720  50.2613280  31.0088440
  80.2657750  47.0784770  33.8446930  79.3686280  47.3024740  34.0920330
  80.2910620  47.2019710  32.8958330  87.3062970  43.9277890  19.7588190
  87.7456250  43.0900320  19.6126010  88.0191390  44.5607290  19.8452330
  79.0928970  43.9498090  32.4204300  78.9536740  44.8220890  32.7891700
  78.2110330  43.6070900  32.2752240  85.4158350  48.8673960  23.7269430
  85.8554260  49.6098290  23.3124820  85.3545240  49.1100530  24.6508390
  80.8909320  49.8919790  34.6289450  80.8624750  50.2962740  33.7617880
  80.7274290  48.9630150  34.4661050  90.8880110  35.1820700  18.0729230
  90.5752770  35.2747530  18.9728300  91.6492580  35.7601730  18.0226660
  77.4062250  42.5480500  22.5306570  77.2859850  43.2742590  21.9187840
  77.0963140  41.7783410  22.0534480  92.8424140  50.6746890  35.9253620
  93.3183860  51.1529780  36.6042700  93.4631300  50.6064380  35.1999120
  75.0447620  45.7195640  28.3375210  75.1228040  45.8544410  27.3930930
  75.6589300  45.0111530  28.5303330  76.2895250  47.4195830  24.7481390
  75.8823330  47.5610420  23.8934990  77.1808260  47.1355990  24.5452600
  92.2457390  47.8659740  33.0853630  92.3720450  47.6271620  32.1670810
  92.2878770  47.0344280  33.5575710  86.1074130  51.5687740  31.6548440
  86.6218800  51.4795750  32.4570870  85.2643210  51.9147440  31.9476350
  88.0828530  51.8543080  21.0832440  87.9229670  51.5646020  21.9814270
  87.9175240  51.0783210  20.5477670  80.5616910  51.6341610  22.8604060
  80.3859390  50.7177150  22.6471860  79.7072650  51.9928900  23.1001860
  87.7854660  49.3630640  19.6430440  87.0919820  49.3607930  18.9832720
  88.5277520  48.9389960  19.2124610  87.3504590  50.9893350  23.7178930
  87.8061540  50.2082730  24.0317550  87.6897110  51.7000170  24.2620110
  92.0981400  39.9192200  34.0503370  91.4825670  40.4271870  33.5218830
  91.7777820  39.0190530  33.9929310  75.1007140  46.7609810  30.8769670
  75.2638180  46.2915170  30.0589040  75.5659590  46.2533370  31.5418510
  79.8725910  35.8915570  25.9130240  79.4294060  36.6725110  25.5814760
  80.4310900  36.2145460  26.6201180  84.1595720  38.7584090  31.5165560
  83.6975090  38.9667110  32.3285500  83.7573830  37.9443440  31.2136230
  89.1600230  39.9793040  32.6462220  88.3093820  39.6798790  32.9671290
  89.0002020  40.2235050  31.7346040  86.2549940  41.4794790  34.7461010
  86.5803350  40.6458540  34.4063240  87.0430270  42.0023310  34.8939340
  82.9884730  35.5126270  20.7936070  82.3638910  35.5086140  21.5189380
  82.9014850  34.6457230  20.3972040  81.9101810  36.4362900  27.7719840
  82.2074140  37.3425730  27.6911860  82.4587370  35.9481680  27.1579410
  79.6640130  41.0149140  23.6411490  79.4381050  40.7986310  24.5458110
  78.8832660  41.4477600  23.2957460  86.8937890  41.0212510  22.2402140
  86.2946780  41.7448310  22.0565760  87.4417500  40.9589290  21.4578590
  82.1039340  41.9134720  34.3071760  82.0082940  40.9729450  34.1572160
  82.9471320  42.1349790  33.9119830  85.5002760  39.6576050  24.2705420
  85.8932330  39.9748250  23.4574110  85.8619610  38.7787930  24.3849940
  77.2349880  38.3248390  32.4605540  76.8413270  39.1723600  32.6678320
  76.5468280  37.6874760  32.6514180  83.8094930  38.4083360  35.5302280
  83.1193250  38.2155560  36.1648370  84.5527230  38.6918000  36.0626580
  74.5366930  36.2476850  26.4935620  74.2479980  36.8179710  27.2060600
  75.2812690  35.7681300  26.8566850  74.7237160  40.1896970  17.7038340
  74.6411830  41.1327730  17.8453330  74.3720220  40.0471880  16.8250690
  86.0857900  42.2481800  28.3656200  85.3539020  42.7568610  28.7146300
  85.6882240  41.4311780  28.0644980  82.5235290  38.9236000  26.7708690
  82.5271350  38.4825950  25.9213230  83.4186410  39.2453330  26.8780510
  78.3737670  38.8062490  25.7302900  78.0337720  39.2837720  26.4869950
  77.6114990  38.3527610  25.3704000  82.5855440  39.9248080  19.7615450
  82.7068260  39.8834560  20.7101270  82.2003950  40.7872230  19.6062180
  86.5483810  37.7015480  27.7779140  86.5656550  38.1524130  28.6220990
  86.2999390  36.8021120  27.9912580  81.5976940  42.2349220  19.1598750
  81.0293840  41.7867470  18.5334660  82.3065940  42.5942000  18.6263900
  89.9754560  35.1147660  33.6165520  90.3000330  34.3837320  34.1423500
  90.0111070  34.7961300  32.7146510  76.6746120  46.1361240  33.0365480
  76.2900910  45.4954910  33.6348440  76.9858310  46.8397360  33.6060210
  82.8243260  42.9837780  28.5174100  83.1913390  42.5096350  29.2635440
  82.6348320  43.8579350  28.8582440  75.6883750  37.7281470  24.6467570
  75.4030670  37.3637140  25.4846190  75.6262610  36.9961930  24.0330710
  80.6142630  42.0246420  30.8358310  80.3099700  42.9038400  31.0608670
  81.5689090  42.0846210  30.8715750  79.1424420  46.2307410  21.4325160
  78.3686680  45.6905030  21.2723880  79.8719050  45.7114020  21.0942920
  89.9012400  45.2272770  27.2251550  90.6211520  45.7228060  26.8347660
  89.6994220  44.5490660  26.5805420  85.3622340  36.6210730  21.3680940
  84.5486950  36.1223900  21.2926250  85.1684290  37.4608980  20.9517290
  85.2831200  45.2981830  33.1120550  85.2168510  44.3777500  32.8578140
  84.6536340  45.3957270  33.8265190  88.0770730  40.9930380  19.6643100
  88.9650350  41.3047610  19.4894440  88.0475820  40.1202630  19.2723680
  79.1861820  45.8987790  25.0703970  79.7040490  45.0956050  25.0160860
  78.7345840  45.8366930  25.9120800  84.0731320  47.1654070  20.3431270
  84.4147020  47.9096300  19.8474590  83.2444030  47.4785190  20.7056100
  76.6706360  42.8649160  31.9829670  76.3121300  43.5303010  32.5703010
  76.3760920  42.0332710  32.3542290  79.8719480  43.3233400  34.8669220
  79.5719620  43.4690580  33.9697040  80.6430720  42.7638690  34.7742610
  85.2147930  48.1202400  32.8624350  85.2292470  47.1883360  32.6443260
  84.5073030  48.2062160  33.5014120  90.3485000  42.3042220  19.1322960
  90.2648720  42.7356440  18.2819400  91.0679190  42.7640570  19.5649780
  91.4259140  44.7609740  32.2092930  90.7007330  45.3538520  32.0122320
  91.9534600  44.7533280  31.4106300  91.3772250  49.1584480  21.8605090
  90.7348410  48.5040100  22.1348810  90.9902910  49.5639570  21.0845760
  86.9558730  46.4869910  25.7076780  87.3082550  45.8898040  25.0478150
  86.0721060  46.1614140  25.8785030  83.0422010  47.2467600  23.1147190
  83.7293140  47.7936810  23.4954780  82.2554430  47.7908330  23.1496800
  75.1814410  42.8640420  18.6064270  76.0509260  43.1465220  18.8900190
  74.6904730  43.6776290  18.4913080  82.3449220  44.2513630  22.7272550
  82.8012000  45.0618880  22.9532740  81.9937430  43.9336770  23.5591040
  84.6481830  49.7619970  29.9564850  85.2924050  49.9679350  30.6338270
  85.0111270  49.0008370  29.5035700  78.2461000  34.5951280  23.1995070
  78.1175630  34.5869180  24.1479990  77.4223020  34.9334370  22.8486080
  85.9213910  47.7652320  28.6742300  86.5636140  47.0645480  28.7874470
  86.4463260  48.5450760  28.4939190  89.7669630  48.0500940  18.3981440
  89.5407210  47.3331380  18.9906080  89.3765830  47.8013380  17.5603190
  87.6951530  48.5647220  31.8778360  88.0307770  49.1513910  32.5556280
  86.7751870  48.4339930  32.1076150  75.5485660  52.0767800  19.1725900
  75.9083300  52.6757140  18.5183170  75.4078000  52.6227690  19.9460930
  75.2454930  36.3542400  32.6601770  74.5313450  36.5539320  33.2654380
  75.6649970  35.5781970  33.0316570  89.3485880  45.9672880  20.0595600
  89.0607580  46.4285570  20.8473480  90.1438050  45.5070650  20.3279820
  83.5240110  48.6138550  35.0466420  83.2036980  47.8947790  35.5912110
  82.8498470  49.2893620  35.1202480  81.5654280  49.4599000  19.9899570
  81.5564380  50.1928690  19.3744080  80.6452640  49.2130580  20.0826530
  77.1660920  44.6813890  20.7346330  76.5588870  45.4212790  20.7441630
  77.6410270  44.7713250  19.9084530  86.7393710  38.8464710  30.4103220
  87.1074530  38.0259920  30.7382790  85.8791910  38.9066600  30.8258870
  90.1055740  37.8021650  21.2190780  89.4768900  37.9067320  20.5049010
  89.6107660  38.0218430  22.0084660  84.5513880  49.5227240  18.6524760
  84.6525860  49.3191230  17.7226740  83.6515620  49.2685520  18.8572540
  82.0739770  40.0807600  22.6348660  81.3655920  40.5493940  23.0762270
  82.3584250  39.4229610  23.2693850  83.6995700  41.5004300  30.6341190
  84.1980950  41.9750120  31.2993040  83.8418650  40.5767820  30.8411220
  86.1055200  36.8058260  24.0744450  85.9822980  36.8244390  23.1253960
  87.0539760  36.8537200  24.1942850  83.1931990  52.0413560  23.3472430
  83.4473490  52.0034950  22.4251800  82.2444470  51.9146890  23.3400680
  80.2774790  38.3892680  20.0099370  81.1265320  38.8262830  19.9439560
  79.9106060  38.7012940  20.8371430  90.9062560  37.7172260  31.4769580
  90.4036160  38.4577660  31.8163390  91.7219220  38.1056260  31.1606370
  89.1984570  42.9605440  24.9230940  88.2574710  42.9755670  25.0978630
  89.5128640  42.1741400  25.3691240  79.1766210  44.6425040  18.4834900
  79.9429480  44.5306400  19.0460330  79.2540900  43.9463010  17.8311670
  77.8712970  42.0750110  19.1667790  77.9516560  41.1277620  19.2785190
  78.7632720  42.4056990  19.2728450  91.2010150  50.1314290  26.5985200
  91.3257570  50.9545460  27.0709010  92.0675710  49.9205020  26.2509350
  75.5573160  48.2919070  22.1443840  74.6312940  48.5340210  22.1349250
  76.0229590  49.1193330  22.0228590  81.7829990  51.3975810  18.0927900
  82.5758600  51.6864640  17.6409690  81.2634340  50.9667980  17.4140380
  86.5150590  47.5171440  35.4063320  85.9088750  47.5403040  34.6659070
  86.2104700  46.7854480  35.9430570  87.9450960  51.2451730  34.0172730
  88.8972710  51.1609750  33.9672970  87.7979180  51.9093440  34.6906520
  90.8360160  50.6245940  19.5164640  90.5501670  50.2111080  18.7018820
  90.6379710  51.5533650  19.3965160  75.3983770  43.8965030  34.4023960
  75.9022790  43.3172310  34.9740190  74.6591190  44.1805260  34.9400330
  82.3007390  46.6179220  17.9570250  82.1958030  46.0031570  18.6831630
  82.1331610  46.0945110  17.1733260  82.4521710  45.3036020  33.9359480
  81.6867380  45.8721020  33.8514150  82.6337670  45.0112230  33.0427710
  85.5410120  45.6799250  18.5612240  84.9920220  46.1268550  19.2054980
  86.1629380  45.1748500  19.0849910  89.5945060  47.0341350  34.4934500
  90.3354530  47.3717110  33.9901960  88.8317740  47.2033410  33.9404270
  77.4306850  42.0394620  35.2974030  77.4712190  41.7408490  36.2059260
  78.2852350  42.4402230  35.1381550  81.2085240  44.6390170  20.4577540
  81.6301660  44.4730040  21.3008930  81.3336080  43.8290400  19.9632680
  79.3712660  40.6186720  33.2648520  78.8409120  40.1277670  32.6371860
  80.0400730  41.0470920  32.7306450  83.7212880  43.6627780  17.7054640
  84.2418540  42.9476800  17.3395790  84.3681280  44.3013650  18.0055150
  88.2690720  45.0856180  33.0289710  88.6831740  45.2401260  33.8780130
  87.3341720  45.2111400  33.1915490  88.7412890  42.4252340  35.0328860
  89.3233660  41.6704660  34.9449340  88.9174660  42.9559780  34.2560340
  79.8584960  37.5849090  33.3445810  79.7641830  36.9669840  32.6196680
  79.2782350  38.3115380  33.1175720  82.6246400  36.1422330  30.3773200
  82.1763700  36.1646590  29.5318750  81.9911600  35.7441350  30.9743500
  83.0305950  45.0376660  30.9985640  83.4494060  45.8809390  30.8261880
  82.1114580  45.1748700  30.7692420  85.3669850  42.7692840  32.3823480
  85.4866060  42.1733980  33.1218320  86.2263850  42.8062530  31.9624780
  87.7057750  43.3230030  30.9585990  87.1792970  43.8472650  30.3551130
  88.0489090  43.9557420  31.5895720  80.1044140  40.7123400  17.4035700
  79.9033200  39.8490760  17.7649040  79.9336190  40.6256760  16.4657300
  80.8813370  51.3429670  32.1143370  80.3434460  52.0675730  31.7952070
  81.1347330  50.8660010  31.3240710  82.1338620  39.3114190  33.6399300
  82.7238310  39.0030040  34.3277120  81.3158860  38.8393940  33.7959200
  86.9532050  38.9280000  33.8732320  86.2647570  38.2661540  33.8082310
  87.6738070  38.4818270  34.3180780  87.5832450  35.5231630  19.9322580
  87.8634740  34.6799530  20.2882000  86.8098180  35.7554740  20.4461330
  78.9026940  37.8124020  17.3913580  79.2052840  37.8191450  16.4832730
  79.6421530  37.4621880  17.8881240  83.7375580  52.5780880  32.3730020
  83.6634280  53.4816020  32.6802390  82.8354420  52.2592780  32.3452090
  82.1211870  36.7558640  18.3769780  81.7733870  36.0782630  17.7972230
  82.3224640  36.2948150  19.1913170  84.2860910  51.7439390  19.9956380
  85.1811700  52.0824360  20.0175140  84.3178540  51.0218800  19.3680660
  77.9257070  47.1166440  18.2243380  78.3631940  47.6596110  18.8800960
  78.4104800  46.2913390  18.2339720  79.7364790  48.2364480  23.3365610
  79.4360330  48.1129450  24.2369520  79.6302280  47.3773070  22.9281340
  75.6293080  50.7726060  28.4145270  75.1924070  50.9526860  29.2469420
  76.1970760  51.5300680  28.2726990  91.2655260  50.2743060  32.7022580
  90.6657250  50.3335620  31.9586500  91.3949160  49.3348040  32.8319430
  92.5056710  48.0160880  18.0392290  91.6749670  48.0837530  18.5099520
  92.6828540  48.9065000  17.7359150  91.9613170  44.7608360  20.5426490
  92.7232080  45.3305010  20.6486180  91.9767540  44.1935560  21.3134800
  75.4617510  43.2846290  24.7734150  74.8066350  43.0157930  24.1293850
  76.2995460  43.1750770  24.3236130  92.9673140  45.6158460  25.3868420
  93.3381970  44.8325780  24.9804390  93.6075070  46.3047560  25.2085720
  89.9506900  46.9995040  30.7998740  89.1366740  47.4292200  31.0624530
  90.3581100  47.6113450  30.1867790  92.0132340  45.0542730  17.6999010
  92.2881180  45.9621610  17.5718230  91.8243080  44.9905260  18.6361000
  88.4107950  38.0787580  18.9952640  88.8292830  37.8918560  18.1549300
  88.1044010  37.2266630  19.3055570  91.9097680  42.9911720  22.6928440
  91.5341280  42.2239650  22.2609730  91.1800800  43.3734420  23.1803370
  76.4993440  43.6698860  29.3137490  76.8666480  43.5826260  30.1933510
  75.9304260  42.9065410  29.2144350  91.2997300  42.1383240  32.3267960
  91.0683390  41.9095990  31.4265910  91.5601850  43.0582790  32.2812850
  76.0509440  40.5807950  33.2195910  75.1565490  40.5474710  33.5589620
  76.5906990  40.7794740  33.9847160  89.7385370  37.3639670  35.1047660
  90.6155550  37.3723070  35.4881660  89.7506210  36.6270510  34.4940010
  74.6755590  40.4945220  20.7159480  73.7719670  40.7575420  20.5411140
  75.1596210  40.7656390  19.9359440  91.1848640  41.2169210  25.9935680
  91.7086120  40.7231860  25.3625850  91.7708060  41.3519570  26.7383250
  91.3638360  41.3009080  29.5155230  90.4141070  41.2672620  29.6300220
  91.5451370  42.2109190  29.2805000  77.2182800  39.5510760  18.6253860
  77.9274500  39.1293980  18.1401140  76.5022740  39.6185990  17.9937210
  76.8656960  35.6050090  17.6656510  77.5885090  36.1459030  17.9837730
  77.1381480  35.3313510  16.7898050  90.6748610  40.4742560  21.9328090
  91.1707730  40.2413430  22.7176970  90.4764680  39.6354400  21.5165730
  76.5549150  34.8556280  27.5679130  77.2025340  34.3053660  27.1274290
  76.9750990  35.1099430  28.3894940  92.1035770  39.1103510  24.4665770
  91.9935050  38.9559550  25.4048040  92.8643360  38.5824450  24.2241180
  90.4501490  35.0497640  30.9248770  91.0873710  35.6631780  31.2907960
  90.5976380  35.0858300  29.9798000  92.9926040  36.9411430  17.7071910
  93.9175350  36.8092610  17.4990200  92.9701830  37.0204250  18.6608360
  93.0664530  37.7122090  20.3328620  92.2716030  37.6467210  20.8621530
  93.2707810  38.6472730  20.3213970  90.0082950  51.7513640  24.3267010
  90.6042020  51.4298210  23.6501430  90.2661100  51.2785460  25.1180280
  76.3081150  35.0111950  30.3104450  75.9595970  35.4675770  31.0762630
  75.9768850  34.1169080  30.3926880  81.6151550  49.7391140  30.0767360
  81.3742910  50.0065700  29.1897880  82.5554190  49.9096870  30.1318220
  83.8205970  36.2023830  33.8323870  83.7594860  36.7945660  34.5819280
  84.7606350  36.0949790  33.6874130  86.4580530  35.8593890  33.4716160
  87.0720940  36.1773180  32.8097240  87.0030090  35.3742480  34.0912020
  92.8755710  51.7585520  30.8778000  92.3813990  52.1554390  30.1605130
  92.2669000  51.1334730  31.2715280  76.9801790  34.5388150  33.5855220
  77.5284780  34.3576200  32.8221330  77.0457100  33.7482260  34.1211530
  77.7533550  51.1293800  31.5955420  77.1593870  50.9978500  32.3345460
  77.7457390  50.2931940  31.1297520  87.1988570  34.4226030  29.7985450
  86.3248410  34.7561140  29.5958380  87.0899320  33.9499210  30.6237320
  88.1060550  36.6296900  31.1827170  87.7773910  35.8148660  30.8028900
  89.0542850  36.5866710  31.0592860  90.5595160  52.4008940  28.1564740
  90.0998130  53.1524750  27.7822760  89.9307620  51.6815410  28.0979540
  77.3845780  48.4952180  30.5463460  76.6579840  47.8757470  30.4789410
  77.4454930  48.8892790  29.6761540  80.9890880  50.7097180  27.3312870
  81.5055900  50.0984540  26.8061130  81.6388260  51.2125960  27.8223880
  83.7286380  51.6005670  28.1581850  84.0164190  51.3459970  27.2814860
  84.2409600  51.0483030  28.7487420  84.9463390  35.3395870  28.7378360
  84.1635180  35.8141370  29.0175120  84.6526320  34.4350700  28.6291540
  89.4984460  36.0418970  26.7827450  89.9392550  35.9864070  25.9349050
  89.2292050  36.9576980  26.8537630  91.3623030  35.6734210  24.7936270
  91.3011430  34.7295430  24.6467290  92.1415060  35.7814300  25.3389730
  76.2903800  35.6443350  21.2592080  77.0483160  35.7572230  20.6856110
  75.8280970  36.4812550  21.2135510  82.8317610  37.7582620  24.2494390
  82.0192120  37.3839510  23.9090270  83.3359250  37.0027700  24.5515580
  87.3342590  34.4225070  25.4877460  87.9371960  34.9945280  25.9625980
  86.5935580  34.9864510  25.2651360  90.4777190  34.8246630  20.7617740
  90.6727820  35.7230080  21.0285170  89.6907060  34.5933710  21.2550690
  78.6628950  36.1707400  19.7994050  79.1921710  35.3837200  19.6702000
  79.2957270  36.8498590  20.0329580  80.8566790  35.9082540  22.8539440
  80.2269530  35.2069850  23.0209570  80.3171930  36.6686670  22.6372600
  83.7958740  52.5221770  35.5250050  84.7226050  52.2866040  35.5686010
  83.7809170  53.3493770  35.0436080  92.0303800  52.0647340  22.5224300
  92.2055990  51.3785080  21.8785220  91.3325370  52.5894390  22.1300970
  80.9822350  35.1866520  35.2891930  80.7006620  35.6900120  34.5252750
  81.3642050  34.3888270  34.9234060  79.8731450  52.4542180  20.0759610
  80.6050270  52.1701460  19.5283500  80.1325120  52.2155460  20.9658990
  79.0346240  48.5706910  20.0805940  78.4055120  49.0392010  20.6291770
  79.1494070  47.7256130  20.5152130  87.5837810  34.6020100  35.8672400
  87.4703260  34.9214710  36.7623920  88.4007550  35.0032610  35.5709680
  90.3636300  51.7491630  35.3491090  91.1561620  51.2540860  35.1417050
  90.6569450  52.4281770  35.9566700  86.4895960  42.6212570   6.2307140
  86.4090010  41.7067180   5.9598850  86.0760380  43.1179640   5.5246850
  84.6214000  44.3991590   8.1116410  83.8456100  43.9192030   8.4014980
  85.2726930  43.7197240   7.9372570  78.6379830  44.7111400   8.9892170
  77.8064710  44.4560110   9.3888680  79.2460810  44.7822170   9.7250090
  88.6421430  48.8051780   6.8915540  88.1802960  48.0339020   7.2202710
  89.4546980  48.8317850   7.3967990  78.6181090  48.7451490   9.1850190
  78.9209130  47.8549230   9.0060410  79.3624680  49.3021710   8.9572440
  77.0471780  39.6713290   2.7734560  76.1588480  40.0129260   2.6714440
  77.3312970  39.4713610   1.8815390  75.0104790  42.2718940   8.6574260
  75.5820900  41.5041140   8.6577900  75.0106330  42.5707700   7.7480870
  84.8684740  51.0909790   6.5119530  84.2496180  51.5467290   5.9413970
  85.7236520  51.2461250   6.1109230  84.0622990  47.0748780   8.1186570
  83.9931270  46.1338720   7.9575700  84.8242850  47.1650190   8.6909140
  76.2529660  37.6803300  10.4443190  76.0732500  36.7829050  10.7245950
  75.8509740  38.2275170  11.1190140  85.0928160  39.8819160   8.3455500
  85.4692980  39.0091040   8.2329170  84.9947670  40.2177860   7.4545940
  79.2233170  38.2544790   3.8072940  79.3299920  39.1548520   4.1141700
  78.3125530  38.2062760   3.5167590  88.8752280  37.3769600   5.2783840
  89.6961900  36.8866170   5.3209320  88.9086360  37.9667260   6.0315680
  76.8716330  40.1763800   9.0525530  77.5526440  40.4402170   9.6712930
  76.5564380  39.3364670   9.3863540  81.0640900  41.2231160   8.1398120
  81.5719120  41.7212130   8.7803140  81.5954140  40.4466360   7.9637480
  93.1651830  39.3936350  11.8427470  92.4604000  39.7818060  11.3242580
  93.4309750  40.0886640  12.4448400  79.3477000  35.8629720  12.4061540
  79.3495440  36.3802110  11.6007440  78.5181310  35.3859900  12.3831470
  85.7348090  45.9749030   3.9051440  85.1165360  46.4398480   3.3414160
  86.2471340  46.6676510   4.3220950  80.5979850  45.5024900  10.5835040
  80.2649230  46.1293820  11.2256110  80.7746530  46.0286780   9.8036710
  89.1113760  39.3169980   8.0511380  88.4069330  39.6054870   8.6314490
  89.4725920  40.1270090   7.6910940  79.0292330  37.5739680  10.4131990
  79.3709140  38.4181730  10.1185860  78.0908140  37.7223420  10.5297330
  79.8098950  47.4705700  12.3984220  80.4272950  48.1456780  12.1168670
  78.9492070  47.8793680  12.3071720  90.7276540  48.9345110  10.3138860
  90.0440060  49.6044220  10.3055530  91.2670830  49.1325760   9.5483720
  92.1800680  38.7624770   8.4420590  91.2325590  38.7963750   8.5736020
  92.5050670  39.5763720   8.8269950  82.7120220  35.0621950   6.7376580
  83.0195200  34.5068840   6.0212080  81.7820920  35.1966410   6.5549570
  88.2635280  50.7789240   9.0284040  88.2762440  50.3751530   8.1606300
  87.7110500  51.5536530   8.9245470  89.5580700  47.5005460   4.1174210
  89.4477030  46.5579790   4.2423630  89.5548950  47.8621100   5.0036970
  87.6620720  45.6819080  10.3566650  88.0789510  45.4679190   9.5220110
  88.3860540  45.9391870  10.9275270  85.1000980  43.1270780   3.4736700
  84.1730260  43.0608160   3.7025170  85.2525800  44.0650910   3.3591940
  91.6082820  44.0806300  10.4482890  90.7801450  44.1499390   9.9733020
  92.2033300  44.6660610   9.9798720  89.1298270  44.6891080   3.9771950
  88.5110690  44.3510630   3.3298250  89.1122720  44.0450840   4.6851140
  88.5724830  40.8675620  11.3937760  88.1596010  41.6929330  11.6477750
  87.8400780  40.2820660  11.2014120  80.7057620  43.6535520   6.2556430
  80.3014620  42.9412770   5.7602330  80.7920740  43.3088760   7.1444470
  81.1739320  47.3403080   8.4195640  80.8767610  46.7348550   7.7403420
  82.1239140  47.3780390   8.3085000  79.4186240  40.4278730  10.0355470
  79.9700830  40.5374070   9.2608720  79.9329750  40.8016330  10.7510700
  89.2624930  50.9134950  12.0818740  88.7855490  51.7207140  11.8891350
  88.5786720  50.2613280  12.2344950  80.2657750  47.0784770  15.0703440
  79.3686280  47.3024740  15.3176840  80.2910620  47.2019710  14.1214840
  79.0928970  43.9498090  13.6460810  78.9536740  44.8220890  14.0148210
  78.2110330  43.6070900  13.5008750  85.4158350  48.8673960   4.9525940
  85.8554260  49.6098290   4.5381330  85.3545240  49.1100530   5.8764900
  80.8909320  49.8919790  15.8545960  80.8624750  50.2962740  14.9874390
  80.7274290  48.9630150  15.6917560  77.4062250  42.5480500   3.7563080
  77.2859850  43.2742590   3.1444350  77.0963140  41.7783410   3.2790990
  92.8424140  50.6746890  17.1510130  93.3183860  51.1529780  17.8299210
  93.4631300  50.6064380  16.4255630  75.0447620  45.7195640   9.5631720
  75.1228040  45.8544410   8.6187440  75.6589300  45.0111530   9.7559840
  76.2895250  47.4195830   5.9737900  75.8823330  47.5610420   5.1191500
  77.1808260  47.1355990   5.7709110  92.2457390  47.8659740  14.3110140
  92.3720450  47.6271620  13.3927320  92.2878770  47.0344280  14.7832220
  86.1074130  51.5687740  12.8804950  86.6218800  51.4795750  13.6827380
  85.2643210  51.9147440  13.1732860  88.0828530  51.8543080   2.3088950
  87.9229670  51.5646020   3.2070780  87.9175240  51.0783210   1.7734180
  80.5616910  51.6341610   4.0860570  80.3859390  50.7177150   3.8728370
  79.7072650  51.9928900   4.3258370  87.3504590  50.9893350   4.9435440
  87.8061540  50.2082730   5.2574060  87.6897110  51.7000170   5.4876620
  92.0981400  39.9192200  15.2759880  91.4825670  40.4271870  14.7475340
  91.7777820  39.0190530  15.2185820  75.1007140  46.7609810  12.1026180
  75.2638180  46.2915170  11.2845550  75.5659590  46.2533370  12.7675020
  79.8725910  35.8915570   7.1386750  79.4294060  36.6725110   6.8071270
  80.4310900  36.2145460   7.8457690  84.1595720  38.7584090  12.7422070
  83.6975090  38.9667110  13.5542010  83.7573830  37.9443440  12.4392740
  89.1600230  39.9793040  13.8718730  88.3093820  39.6798790  14.1927800
  89.0002020  40.2235050  12.9602550  86.2549940  41.4794790  15.9717520
  86.5803350  40.6458540  15.6319750  87.0430270  42.0023310  16.1195850
  81.9101810  36.4362900   8.9976350  82.2074140  37.3425730   8.9168370
  82.4587370  35.9481680   8.3835920  79.6640130  41.0149140   4.8668000
  79.4381050  40.7986310   5.7714620  78.8832660  41.4477600   4.5213970
  86.8937890  41.0212510   3.4658650  86.2946780  41.7448310   3.2822270
  87.4417500  40.9589290   2.6835100  82.1039340  41.9134720  15.5328270
  82.0082940  40.9729450  15.3828670  82.9471320  42.1349790  15.1376340
  85.5002760  39.6576050   5.4961930  85.8932330  39.9748250   4.6830620
  85.8619610  38.7787930   5.6106450  77.2349880  38.3248390  13.6862050
  76.8413270  39.1723600  13.8934830  76.5468280  37.6874760  13.8770690
  83.8094930  38.4083360  16.7558790  83.1193250  38.2155560  17.3904880
  84.5527230  38.6918000  17.2883090  74.5366930  36.2476850   7.7192130
  74.2479980  36.8179710   8.4317110  75.2812690  35.7681300   8.0823360
  86.0857900  42.2481800   9.5912710  85.3539020  42.7568610   9.9402810
  85.6882240  41.4311780   9.2901490  82.5235290  38.9236000   7.9965200
  82.5271350  38.4825950   7.1469740  83.4186410  39.2453330   8.1037020
  78.3737670  38.8062490   6.9559410  78.0337720  39.2837720   7.7126460
  77.6114990  38.3527610   6.5960510  86.5483810  37.7015480   9.0035650
  86.5656550  38.1524130   9.8477500  86.2999390  36.8021120   9.2169090
  89.9754560  35.1147660  14.8422030  90.3000330  34.3837320  15.3680010
  90.0111070  34.7961300  13.9403020  76.6746120  46.1361240  14.2621990
  76.2900910  45.4954910  14.8604950  76.9858310  46.8397360  14.8316720
  82.8243260  42.9837780   9.7430610  83.1913390  42.5096350  10.4891950
  82.6348320  43.8579350  10.0838950  75.6883750  37.7281470   5.8724080
  75.4030670  37.3637140   6.7102700  75.6262610  36.9961930   5.2587220
  80.6142630  42.0246420  12.0614820  80.3099700  42.9038400  12.2865180
  81.5689090  42.0846210  12.0972260  79.1424420  46.2307410   2.6581670
  78.3686680  45.6905030   2.4980390  79.8719050  45.7114020   2.3199430
  89.9012400  45.2272770   8.4508060  90.6211520  45.7228060   8.0604170
  89.6994220  44.5490660   7.8061930  85.3622340  36.6210730   2.5937450
  84.5486950  36.1223900   2.5182760  85.1684290  37.4608980   2.1773800
  85.2831200  45.2981830  14.3377060  85.2168510  44.3777500  14.0834650
  84.6536340  45.3957270  15.0521700  79.1861820  45.8987790   6.2960480
  79.7040490  45.0956050   6.2417370  78.7345840  45.8366930   7.1377310
  76.6706360  42.8649160  13.2086180  76.3121300  43.5303010  13.7959520
  76.3760920  42.0332710  13.5798800  79.8719480  43.3233400  16.0925730
  79.5719620  43.4690580  15.1953550  80.6430720  42.7638690  15.9999120
  85.2147930  48.1202400  14.0880860  85.2292470  47.1883360  13.8699770
  84.5073030  48.2062160  14.7270630  91.4259140  44.7609740  13.4349440
  90.7007330  45.3538520  13.2378830  91.9534600  44.7533280  12.6362810
  91.3772250  49.1584480   3.0861600  90.7348410  48.5040100   3.3605320
  90.9902910  49.5639570   2.3102270  86.9558730  46.4869910   6.9333290
  87.3082550  45.8898040   6.2734660  86.0721060  46.1614140   7.1041540
  83.0422010  47.2467600   4.3403700  83.7293140  47.7936810   4.7211290
  82.2554430  47.7908330   4.3753310  82.3449220  44.2513630   3.9529060
  82.8012000  45.0618880   4.1789250  81.9937430  43.9336770   4.7847550
  84.6481830  49.7619970  11.1821360  85.2924050  49.9679350  11.8594780
  85.0111270  49.0008370  10.7292210  78.2461000  34.5951280   4.4251580
  78.1175630  34.5869180   5.3736500  77.4223020  34.9334370   4.0742590
  85.9213910  47.7652320   9.8998810  86.5636140  47.0645480  10.0130980
  86.4463260  48.5450760   9.7195700  87.6951530  48.5647220  13.1034870
  88.0307770  49.1513910  13.7812790  86.7751870  48.4339930  13.3332660
  75.2454930  36.3542400  13.8858280  74.5313450  36.5539320  14.4910890
  75.6649970  35.5781970  14.2573080  75.5327520  50.3422660  14.8724810
  75.6418640  49.4017400  14.7320200  74.8808080  50.6077410  14.2238540
  83.5240110  48.6138550  16.2722930  83.2036980  47.8947790  16.8168620
  82.8498470  49.2893620  16.3458990  86.7393710  38.8464710  11.6359730
  87.1074530  38.0259920  11.9639300  85.8791910  38.9066600  12.0515380
  90.1055740  37.8021650   2.4447290  89.4768900  37.9067320   1.7305520
  89.6107660  38.0218430   3.2341170  82.0739770  40.0807600   3.8605170
  81.3655920  40.5493940   4.3018780  82.3584250  39.4229610   4.4950360
  83.6995700  41.5004300  11.8597700  84.1980950  41.9750120  12.5249550
  83.8418650  40.5767820  12.0667730  86.1055200  36.8058260   5.3000960
  85.9822980  36.8244390   4.3510470  87.0539760  36.8537200   5.4199360
  83.1931990  52.0413560   4.5728940  83.4473490  52.0034950   3.6508310
  82.2444470  51.9146890   4.5657190  90.9062560  37.7172260  12.7026090
  90.4036160  38.4577660  13.0419900  91.7219220  38.1056260  12.3862880
  89.1984570  42.9605440   6.1487450  88.2574710  42.9755670   6.3235140
  89.5128640  42.1741400   6.5947750  91.2010150  50.1314290   7.8241710
  91.3257570  50.9545460   8.2965520  92.0675710  49.9205020   7.4765860
  78.6727680  52.2245500   7.4958840  79.4090160  51.6760960   7.7667410
  79.0568600  53.0901510   7.3564830  75.5573160  48.2919070   3.3700350
  74.6312940  48.5340210   3.3605760  76.0229590  49.1193330   3.2485100
  77.6785960  51.4091570  16.6844420  78.4798690  51.7303620  17.0979820
  77.1637780  51.0487150  17.4064330  86.5150590  47.5171440  16.6319830
  85.9088750  47.5403040  15.8915580  86.2104700  46.7854480  17.1687080
  87.9450960  51.2451730  15.2429240  88.8972710  51.1609750  15.1929480
  87.7979180  51.9093440  15.9163030  75.3983770  43.8965030  15.6280470
  75.9022790  43.3172310  16.1996700  74.6591190  44.1805260  16.1656840
  82.4521710  45.3036020  15.1615990  81.6867380  45.8721020  15.0770660
  82.6337670  45.0112230  14.2684220  89.5945060  47.0341350  15.7191010
  90.3354530  47.3717110  15.2158470  88.8317740  47.2033410  15.1660780
  77.4306850  42.0394620  16.5230540  77.4712190  41.7408490  17.4315770
  78.2852350  42.4402230  16.3638060  79.3712660  40.6186720  14.4905030
  78.8409120  40.1277670  13.8628370  80.0400730  41.0470920  13.9562960
  88.2690720  45.0856180  14.2546220  88.6831740  45.2401260  15.1036640
  87.3341720  45.2111400  14.4172000  88.7412890  42.4252340  16.2585370
  89.3233660  41.6704660  16.1705850  88.9174660  42.9559780  15.4816850
  79.8584960  37.5849090  14.5702320  79.7641830  36.9669840  13.8453190
  79.2782350  38.3115380  14.3432230  82.6246400  36.1422330  11.6029710
  82.1763700  36.1646590  10.7575260  81.9911600  35.7441350  12.2000010
  83.0305950  45.0376660  12.2242150  83.4494060  45.8809390  12.0518390
  82.1114580  45.1748700  11.9948930  85.3669850  42.7692840  13.6079990
  85.4866060  42.1733980  14.3474830  86.2263850  42.8062530  13.1881290
  87.7057750  43.3230030  12.1842500  87.1792970  43.8472650  11.5807640
  88.0489090  43.9557420  12.8152230  80.8813370  51.3429670  13.3399880
  80.3434460  52.0675730  13.0208580  81.1347330  50.8660010  12.5497220
  82.1338620  39.3114190  14.8655810  82.7238310  39.0030040  15.5533630
  81.3158860  38.8393940  15.0215710  86.9532050  38.9280000  15.0988830
  86.2647570  38.2661540  15.0338820  87.6738070  38.4818270  15.5437290
  83.7375580  52.5780880  13.5986530  83.6634280  53.4816020  13.9058900
  82.8354420  52.2592780  13.5708600  75.1402870  49.9055470   6.9020150
  75.4705880  49.0376530   6.6698790  75.5693870  50.1113990   7.7325110
  79.7364790  48.2364480   4.5622120  79.4360330  48.1129450   5.4626030
  79.6302280  47.3773070   4.1537850  75.6293080  50.7726060   9.6401780
  75.1924070  50.9526860  10.4725930  76.1970760  51.5300680   9.4983500
  91.2655260  50.2743060  13.9279090  90.6657250  50.3335620  13.1843010
  91.3949160  49.3348040  14.0575940  91.9613170  44.7608360   1.7683000
  92.7232080  45.3305010   1.8742690  91.9767540  44.1935560   2.5391310
  75.4617510  43.2846290   5.9990660  74.8066350  43.0157930   5.3550360
  76.2995460  43.1750770   5.5492640  92.9673140  45.6158460   6.6124930
  93.3381970  44.8325780   6.2060900  93.6075070  46.3047560   6.4342230
  89.9506900  46.9995040  12.0255250  89.1366740  47.4292200  12.2881040
  90.3581100  47.6113450  11.4124300  91.9097680  42.9911720   3.9184950
  91.5341280  42.2239650   3.4866240  91.1800800  43.3734420   4.4059880
  76.4993440  43.6698860  10.5394000  76.8666480  43.5826260  11.4190020
  75.9304260  42.9065410  10.4400860  91.2997300  42.1383240  13.5524470
  91.0683390  41.9095990  12.6522420  91.5601850  43.0582790  13.5069360
  76.0509440  40.5807950  14.4452420  75.1565490  40.5474710  14.7846130
  76.5906990  40.7794740  15.2103670  89.7385370  37.3639670  16.3304170
  90.6155550  37.3723070  16.7138170  89.7506210  36.6270510  15.7196520
  91.1848640  41.2169210   7.2192190  91.7086120  40.7231860   6.5882360
  91.7708060  41.3519570   7.9639760  91.3638360  41.3009080  10.7411740
  90.4141070  41.2672620  10.8556730  91.5451370  42.2109190  10.5061510
  90.6748610  40.4742560   3.1584600  91.1707730  40.2413430   3.9433480
  90.4764680  39.6354400   2.7422240  76.5549150  34.8556280   8.7935640
  77.2025340  34.3053660   8.3530800  76.9750990  35.1099430   9.6151450
  92.1035770  39.1103510   5.6922280  91.9935050  38.9559550   6.6304550
  92.8643360  38.5824450   5.4497690  90.4501490  35.0497640  12.1505280
  91.0873710  35.6631780  12.5164470  90.5976380  35.0858300  11.2054510
  90.0082950  51.7513640   5.5523520  90.6042020  51.4298210   4.8757940
  90.2661100  51.2785460   6.3436790  76.3081150  35.0111950  11.5360960
  75.9595970  35.4675770  12.3019140  75.9768850  34.1169080  11.6183390
  77.9145520  48.1831550  15.7014150  77.8715150  47.8124460  16.5828610
  78.0456530  49.1209120  15.8415970  81.6151550  49.7391140  11.3023870
  81.3742910  50.0065700  10.4154390  82.5554190  49.9096870  11.3574730
  83.8205970  36.2023830  15.0580380  83.7594860  36.7945660  15.8075790
  84.7606350  36.0949790  14.9130640  86.4580530  35.8593890  14.6972670
  87.0720940  36.1773180  14.0353750  87.0030090  35.3742480  15.3168530
  92.8755710  51.7585520  12.1034510  92.3813990  52.1554390  11.3861640
  92.2669000  51.1334730  12.4971790  76.9801790  34.5388150  14.8111730
  77.5284780  34.3576200  14.0477840  77.0457100  33.7482260  15.3468040
  77.7533550  51.1293800  12.8211930  77.1593870  50.9978500  13.5601970
  77.7457390  50.2931940  12.3554030  87.1988570  34.4226030  11.0241960
  86.3248410  34.7561140  10.8214890  87.0899320  33.9499210  11.8493830
  88.1060550  36.6296900  12.4083680  87.7773910  35.8148660  12.0285410
  89.0542850  36.5866710  12.2849370  90.5595160  52.4008940   9.3821250
  90.0998130  53.1524750   9.0079270  89.9307620  51.6815410   9.3236050
  77.3845780  48.4952180  11.7719970  76.6579840  47.8757470  11.7045920
  77.4454930  48.8892790  10.9018050  80.9890880  50.7097180   8.5569380
  81.5055900  50.0984540   8.0317640  81.6388260  51.2125960   9.0480390
  83.7286380  51.6005670   9.3838360  84.0164190  51.3459970   8.5071370
  84.2409600  51.0483030   9.9743930  84.9463390  35.3395870   9.9634870
  84.1635180  35.8141370  10.2431630  84.6526320  34.4350700   9.8548050
  89.4984460  36.0418970   8.0083960  89.9392550  35.9864070   7.1605560
  89.2292050  36.9576980   8.0794140  91.3623030  35.6734210   6.0192780
  91.3011430  34.7295430   5.8723800  92.1415060  35.7814300   6.5646240
  75.6675780  51.8126570   4.9816730  75.4997820  51.1797250   5.6798620
  74.8010290  52.0185970   4.6310920  76.2903800  35.6443350   2.4848590
  77.0483160  35.7572230   1.9112620  75.8280970  36.4812550   2.4392020
  82.8317610  37.7582620   5.4750900  82.0192120  37.3839510   5.1346780
  83.3359250  37.0027700   5.7772090  87.3342590  34.4225070   6.7133970
  87.9371960  34.9945280   7.1882490  86.5935580  34.9864510   6.4907870
  90.4777190  34.8246630   1.9874250  90.6727820  35.7230080   2.2541680
  89.6907060  34.5933710   2.4807200  77.2738480  50.5059800   2.4266870
  76.7486100  50.8867830   1.7228830  77.1983060  51.1310570   3.1476580
  80.8566790  35.9082540   4.0795950  80.2269530  35.2069850   4.2466080
  80.3171930  36.6686670   3.8629110  83.7958740  52.5221770  16.7506560
  84.7226050  52.2866040  16.7942520  83.7809170  53.3493770  16.2692590
  92.0303800  52.0647340   3.7480810  92.2055990  51.3785080   3.1041730
  91.3325370  52.5894390   3.3557480  80.9822350  35.1866520  16.5148440
  80.7006620  35.6900120  15.7509260  81.3642050  34.3888270  16.1490570
  87.5837810  34.6020100  17.0928910  87.4703260  34.9214710  17.9880430
  88.4007550  35.0032610  16.7966190  90.3636300  51.7491630  16.5747600
  91.1561620  51.2540860  16.3673560  90.6569450  52.4281770  17.1823210
  86.4895960  23.8469080  81.3281100  86.4090010  22.9323690  81.0572810
  86.0760380  24.3436150  80.6220810  84.6214000  25.6248100  83.2090370
  83.8456100  25.1448540  83.4988940  85.2726930  24.9453750  83.0346530
  78.6379830  25.9367910  84.0866130  77.8064710  25.6816620  84.4862640
  79.2460810  26.0078680  84.8224050  88.6421430  30.0308290  81.9889500
  88.1802960  29.2595530  82.3176670  89.4546980  30.0574360  82.4941950
  78.6181090  29.9708000  84.2824150  78.9209130  29.0805740  84.1034370
  79.3624680  30.5278220  84.0546400  77.0471780  20.8969800  77.8708520
  76.1588480  21.2385770  77.7688400  77.3312970  20.6970120  76.9789350
  75.0104790  23.4975450  83.7548220  75.5820900  22.7297650  83.7551860
  75.0106330  23.7964210  82.8454830  84.8684740  32.3166300  81.6093490
  84.2496180  32.7723800  81.0387930  85.7236520  32.4717760  81.2083190
  84.0622990  28.3005290  83.2160530  83.9931270  27.3595230  83.0549660
  84.8242850  28.3906700  83.7883100  76.2529660  18.9059810  85.5417150
  76.0732500  18.0085560  85.8219910  75.8509740  19.4531680  86.2164100
  85.0928160  21.1075670  83.4429460  85.4692980  20.2347550  83.3303130
  84.9947670  21.4434370  82.5519900  79.2233170  19.4801300  78.9046900
  79.3299920  20.3805030  79.2115660  78.3125530  19.4319270  78.6141550
  88.8752280  18.6026110  80.3757800  89.6961900  18.1122680  80.4183280
  88.9086360  19.1923770  81.1289640  76.8716330  21.4020310  84.1499490
  77.5526440  21.6658680  84.7686890  76.5564380  20.5621180  84.4837500
  81.0640900  22.4487670  83.2372080  81.5719120  22.9468640  83.8777100
  81.5954140  21.6722870  83.0611440  93.1651830  20.6192860  86.9401430
  92.4604000  21.0074570  86.4216540  93.4309750  21.3143150  87.5422360
  79.3477000  17.0886230  87.5035500  79.3495440  17.6058620  86.6981400
  78.5181310  16.6116410  87.4805430  85.7348090  27.2005540  79.0025400
  85.1165360  27.6654990  78.4388120  86.2471340  27.8933020  79.4194910
  80.5979850  26.7281410  85.6809000  80.2649230  27.3550330  86.3230070
  80.7746530  27.2543290  84.9010670  89.1113760  20.5426490  83.1485340
  88.4069330  20.8311380  83.7288450  89.4725920  21.3526600  82.7884900
  79.0292330  18.7996190  85.5105950  79.3709140  19.6438240  85.2159820
  78.0908140  18.9479930  85.6271290  79.8098950  28.6962210  87.4958180
  80.4272950  29.3713290  87.2142630  78.9492070  29.1050190  87.4045680
  75.1031290  27.8862070  76.3765030  74.7259270  28.3749170  75.6449930
  75.3604360  28.5587350  77.0071560  90.7276540  30.1601620  85.4112820
  90.0440060  30.8300730  85.4029490  91.2670830  30.3582270  84.6457680
  92.1800680  19.9881280  83.5394550  91.2325590  20.0220260  83.6709980
  92.5050670  20.8020230  83.9243910  82.7120220  16.2878460  81.8350540
  83.0195200  15.7325350  81.1186040  81.7820920  16.4222920  81.6523530
  88.2635280  32.0045750  84.1258000  88.2762440  31.6008040  83.2580260
  87.7110500  32.7793040  84.0219430  89.5580700  28.7261970  79.2148170
  89.4477030  27.7836300  79.3397590  89.5548950  29.0877610  80.1010930
  87.6620720  26.9075590  85.4540610  88.0789510  26.6935700  84.6194070
  88.3860540  27.1648380  86.0249230  85.1000980  24.3527290  78.5710660
  84.1730260  24.2864670  78.7999130  85.2525800  25.2907420  78.4565900
  85.0870060  20.6244290  75.5677820  84.1473730  20.7858250  75.6530280
  85.4053320  21.3429970  75.0213810  91.6082820  25.3062810  85.5456850
  90.7801450  25.3755900  85.0706980  92.2033300  25.8917120  85.0772680
  89.1298270  25.9147590  79.0745910  88.5110690  25.5767140  78.4272210
  89.1122720  25.2707350  79.7825100  88.5724830  22.0932130  86.4911720
  88.1596010  22.9185840  86.7451710  87.8400780  21.5077170  86.2988080
  80.7057620  24.8792030  81.3530390  80.3014620  24.1669280  80.8576290
  80.7920740  24.5345270  82.2418430  81.1739320  28.5659590  83.5169600
  80.8767610  27.9605060  82.8377380  82.1239140  28.6036900  83.4058960
  79.4186240  21.6535240  85.1329430  79.9700830  21.7630580  84.3582680
  79.9329750  22.0272840  85.8484660  89.2624930  32.1391460  87.1792700
  88.7855490  32.9463650  86.9865310  88.5786720  31.4869790  87.3318910
  87.3062970  25.1534400  76.0818660  87.7456250  24.3156830  75.9356480
  88.0191390  25.7863800  76.1682800  79.0928970  25.1754600  88.7434770
  78.9536740  26.0477400  89.1122170  78.2110330  24.8327410  88.5982710
  85.4158350  30.0930470  80.0499900  85.8554260  30.8354800  79.6355290
  85.3545240  30.3357040  80.9738860  90.8880110  16.4077210  74.3959700
  90.5752770  16.5004040  75.2958770  91.6492580  16.9858240  74.3457130
  77.4062250  23.7737010  78.8537040  77.2859850  24.4999100  78.2418310
  77.0963140  23.0039920  78.3764950  75.0447620  26.9452150  84.6605680
  75.1228040  27.0800920  83.7161400  75.6589300  26.2368040  84.8533800
  76.2895250  28.6452340  81.0711860  75.8823330  28.7866930  80.2165460
  77.1808260  28.3612500  80.8683070  86.1074130  32.7944250  87.9778910
  86.6218800  32.7052260  88.7801340  85.2643210  33.1403950  88.2706820
  88.0828530  33.0799590  77.4062910  87.9229670  32.7902530  78.3044740
  87.9175240  32.3039720  76.8708140  80.5616910  32.8598120  79.1834530
  80.3859390  31.9433660  78.9702330  79.7072650  33.2185410  79.4232330
  87.7854660  30.5887150  75.9660910  87.0919820  30.5864440  75.3063190
  88.5277520  30.1646470  75.5355080  87.3504590  32.2149860  80.0409400
  87.8061540  31.4339240  80.3548020  87.6897110  32.9256680  80.5850580
  75.1007140  27.9866320  87.2000140  75.2638180  27.5171680  86.3819510
  75.5659590  27.4789880  87.8648980  79.8725910  17.1172080  82.2360710
  79.4294060  17.8981620  81.9045230  80.4310900  17.4401970  82.9431650
  84.1595720  19.9840600  87.8396030  83.6975090  20.1923620  88.6515970
  83.7573830  19.1699950  87.5366700  82.9884730  16.7382780  77.1166540
  82.3638910  16.7342650  77.8419850  82.9014850  15.8713740  76.7202510
  81.9101810  17.6619410  84.0950310  82.2074140  18.5682240  84.0142330
  82.4587370  17.1738190  83.4809880  79.6640130  22.2405650  79.9641960
  79.4381050  22.0242820  80.8688580  78.8832660  22.6734110  79.6187930
  86.8937890  22.2469020  78.5632610  86.2946780  22.9704820  78.3796230
  87.4417500  22.1845800  77.7809060  85.5002760  20.8832560  80.5935890
  85.8932330  21.2004760  79.7804580  85.8619610  20.0044440  80.7080410
  77.2349880  19.5504900  88.7836010  76.8413270  20.3980110  88.9908790
  76.5468280  18.9131270  88.9744650  74.5366930  17.4733360  82.8166090
  74.2479980  18.0436220  83.5291070  75.2812690  16.9937810  83.1797320
  74.7237160  21.4153480  74.0268810  74.6411830  22.3584240  74.1683800
  74.3720220  21.2728390  73.1481160  86.0857900  23.4738310  84.6886670
  85.3539020  23.9825120  85.0376770  85.6882240  22.6568290  84.3875450
  82.5235290  20.1492510  83.0939160  82.5271350  19.7082460  82.2443700
  83.4186410  20.4709840  83.2010980  78.3737670  20.0319000  82.0533370
  78.0337720  20.5094230  82.8100420  77.6114990  19.5784120  81.6934470
  82.5855440  21.1504590  76.0845920  82.7068260  21.1091070  77.0331740
  82.2003950  22.0128740  75.9292650  86.5483810  18.9271990  84.1009610
  86.5656550  19.3780640  84.9451460  86.2999390  18.0277630  84.3143050
  81.5976940  23.4605730  75.4829220  81.0293840  23.0123980  74.8565130
  82.3065940  23.8198510  74.9494370  82.8243260  24.2094290  84.8404570
  83.1913390  23.7352860  85.5865910  82.6348320  25.0835860  85.1812910
  75.6883750  18.9537980  80.9698040  75.4030670  18.5893650  81.8076660
  75.6262610  18.2218440  80.3561180  80.6142630  23.2502930  87.1588780
  80.3099700  24.1294910  87.3839140  81.5689090  23.3102720  87.1946220
  79.1424420  27.4563920  77.7555630  78.3686680  26.9161540  77.5954350
  79.8719050  26.9370530  77.4173390  89.9012400  26.4529280  83.5482020
  90.6211520  26.9484570  83.1578130  89.6994220  25.7747170  82.9035890
  85.3622340  17.8467240  77.6911410  84.5486950  17.3480410  77.6156720
  85.1684290  18.6865490  77.2747760  88.0770730  22.2186890  75.9873570
  88.9650350  22.5304120  75.8124910  88.0475820  21.3459140  75.5954150
  79.1861820  27.1244300  81.3934440  79.7040490  26.3212560  81.3391330
  78.7345840  27.0623440  82.2351270  84.0731320  28.3910580  76.6661740
  84.4147020  29.1352810  76.1705060  83.2444030  28.7041700  77.0286570
  76.6706360  24.0905670  88.3060140  76.3121300  24.7559520  88.8933480
  76.3760920  23.2589220  88.6772760  90.3485000  23.5298730  75.4553430
  90.2648720  23.9612950  74.6049870  91.0679190  23.9897080  75.8880250
  91.4259140  25.9866250  88.5323400  90.7007330  26.5795030  88.3352790
  91.9534600  25.9789790  87.7336770  91.3772250  30.3840990  78.1835560
  90.7348410  29.7296610  78.4579280  90.9902910  30.7896080  77.4076230
  86.9558730  27.7126420  82.0307250  87.3082550  27.1154550  81.3708620
  86.0721060  27.3870650  82.2015500  83.0422010  28.4724110  79.4377660
  83.7293140  29.0193320  79.8185250  82.2554430  29.0164840  79.4727270
  75.1814410  24.0896930  74.9294740  76.0509260  24.3721730  75.2130660
  74.6904730  24.9032800  74.8143550  82.3449220  25.4770140  79.0503020
  82.8012000  26.2875390  79.2763210  81.9937430  25.1593280  79.8821510
  84.6481830  30.9876480  86.2795320  85.2924050  31.1935860  86.9568740
  85.0111270  30.2264880  85.8266170  78.2461000  15.8207790  79.5225540
  78.1175630  15.8125690  80.4710460  77.4223020  16.1590880  79.1716550
  85.9213910  28.9908830  84.9972770  86.5636140  28.2901990  85.1104940
  86.4463260  29.7707270  84.8169660  89.7669630  29.2757450  74.7211910
  89.5407210  28.5587890  75.3136550  89.3765830  29.0269890  73.8833660
  87.6951530  29.7903730  88.2008830  88.0307770  30.3770420  88.8786750
  86.7751870  29.6596440  88.4306620  75.5485660  33.3024310  75.4956370
  75.9083300  33.9013650  74.8413640  75.4078000  33.8484200  76.2691400
  89.3485880  27.1929390  76.3826070  89.0607580  27.6542080  77.1703950
  90.1438050  26.7327160  76.6510290  81.5654280  30.6855510  76.3130040
  81.5564380  31.4185200  75.6974550  80.6452640  30.4387090  76.4057000
  77.1660920  25.9070400  77.0576800  76.5588870  26.6469300  77.0672100
  77.6410270  25.9969760  76.2315000  86.7393710  20.0721220  86.7333690
  87.1074530  19.2516430  87.0613260  85.8791910  20.1323110  87.1489340
  90.1055740  19.0278160  77.5421250  89.4768900  19.1323830  76.8279480
  89.6107660  19.2474940  78.3315130  84.5513880  30.7483750  74.9755230
  84.6525860  30.5447740  74.0457210  83.6515620  30.4942030  75.1803010
  82.0739770  21.3064110  78.9579130  81.3655920  21.7750450  79.3992740
  82.3584250  20.6486120  79.5924320  83.6995700  22.7260810  86.9571660
  84.1980950  23.2006630  87.6223510  83.8418650  21.8024330  87.1641690
  86.1055200  18.0314770  80.3974920  85.9822980  18.0500900  79.4484430
  87.0539760  18.0793710  80.5173320  83.1931990  33.2670070  79.6702900
  83.4473490  33.2291460  78.7482270  82.2444470  33.1403400  79.6631150
  80.2774790  19.6149190  76.3329840  81.1265320  20.0519340  76.2670030
  79.9106060  19.9269450  77.1601900  90.9062560  18.9428770  87.8000050
  90.4036160  19.6834170  88.1393860  91.7219220  19.3312770  87.4836840
  89.1984570  24.1861950  81.2461410  88.2574710  24.2012180  81.4209100
  89.5128640  23.3997910  81.6921710  79.1766210  25.8681550  74.8065370
  79.9429480  25.7562910  75.3690800  79.2540900  25.1719520  74.1542140
  77.8712970  23.3006620  75.4898260  77.9516560  22.3534130  75.6015660
  78.7632720  23.6313500  75.5958920  91.2010150  31.3570800  82.9215670
  91.3257570  32.1801970  83.3939480  92.0675710  31.1461530  82.5739820
  78.6727680  33.4502010  82.5932800  79.4090160  32.9017470  82.8641370
  79.0568600  34.3158020  82.4538790  75.5573160  29.5175580  78.4674310
  74.6312940  29.7596720  78.4579720  76.0229590  30.3449840  78.3459060
  81.7829990  32.6232320  74.4158370  82.5758600  32.9121150  73.9640160
  81.2634340  32.1924490  73.7370850  90.8360160  31.8502450  75.8395110
  90.5501670  31.4367590  75.0249290  90.6379710  32.7790160  75.7195630
  82.3007390  27.8435730  74.2800720  82.1958030  27.2288080  75.0062100
  82.1331610  27.3201620  73.4963730  85.5410120  26.9055760  74.8842710
  84.9920220  27.3525060  75.5285450  86.1629380  26.4005010  75.4080380
  81.2085240  25.8646680  76.7808010  81.6301660  25.6986550  77.6239400
  81.3336080  25.0546910  76.2863150  83.7212880  24.8884290  74.0285110
  84.2418540  24.1733310  73.6626260  84.3681280  25.5270160  74.3285620
  82.6246400  17.3678840  86.7003670  82.1763700  17.3903100  85.8549220
  81.9911600  16.9697860  87.2973970  83.0305950  26.2633170  87.3216110
  83.4494060  27.1065900  87.1492350  82.1114580  26.4005210  87.0922890
  87.7057750  24.5486540  87.2816460  87.1792970  25.0729160  86.6781600
  88.0489090  25.1813930  87.9126190  80.1044140  21.9379910  73.7266170
  79.9033200  21.0747270  74.0879510  79.9336190  21.8513270  72.7887770
  80.8813370  32.5686180  88.4373840  80.3434460  33.2932240  88.1182540
  81.1347330  32.0916520  87.6471180  87.5832450  16.7488140  76.2553050
  87.8634740  15.9056040  76.6112470  86.8098180  16.9811250  76.7691800
  78.9026940  19.0380530  73.7144050  79.2052840  19.0447960  72.8063200
  79.6421530  18.6878390  74.2111710  83.7375580  33.8037390  88.6960490
  83.6634280  34.7072530  89.0032860  82.8354420  33.4849290  88.6682560
  82.1211870  17.9815150  74.7000250  81.7733870  17.3039140  74.1202700
  82.3224640  17.5204660  75.5143640  84.2860910  32.9695900  76.3186850
  85.1811700  33.3080870  76.3405610  84.3178540  32.2475310  75.6911130
  77.9257070  28.3422950  74.5473850  78.3631940  28.8852620  75.2031430
  78.4104800  27.5169900  74.5570190  75.1402870  31.1311980  81.9994110
  75.4705880  30.2633040  81.7672750  75.5693870  31.3370500  82.8299070
  79.7364790  29.4620990  79.6596080  79.4360330  29.3385960  80.5599990
  79.6302280  28.6029580  79.2511810  75.6293080  31.9982570  84.7375740
  75.1924070  32.1783370  85.5699890  76.1970760  32.7557190  84.5957460
  92.5056710  29.2417390  74.3622760  91.6749670  29.3094040  74.8329990
  92.6828540  30.1321510  74.0589620  91.9613170  25.9864870  76.8656960
  92.7232080  26.5561520  76.9716650  91.9767540  25.4192070  77.6365270
  75.4617510  24.5102800  81.0964620  74.8066350  24.2414440  80.4524320
  76.2995460  24.4007280  80.6466600  92.9673140  26.8414970  81.7098890
  93.3381970  26.0582290  81.3034860  93.6075070  27.5304070  81.5316190
  89.9506900  28.2251550  87.1229210  89.1366740  28.6548710  87.3855000
  90.3581100  28.8369960  86.5098260  92.0132340  26.2799240  74.0229480
  92.2881180  27.1878120  73.8948700  91.8243080  26.2161770  74.9591470
  88.4107950  19.3044090  75.3183110  88.8292830  19.1175070  74.4779770
  88.1044010  18.4523140  75.6286040  91.9097680  24.2168230  79.0158910
  91.5341280  23.4496160  78.5840200  91.1800800  24.5990930  79.5033840
  76.4993440  24.8955370  85.6367960  76.8666480  24.8082770  86.5163980
  75.9304260  24.1321920  85.5374820  91.2997300  23.3639750  88.6498430
  91.0683390  23.1352500  87.7496380  91.5601850  24.2839300  88.6043320
  74.6755590  21.7201730  77.0389950  73.7719670  21.9831930  76.8641610
  75.1596210  21.9912900  76.2589910  91.1848640  22.4425720  82.3166150
  91.7086120  21.9488370  81.6856320  91.7708060  22.5776080  83.0613720
  91.3638360  22.5265590  85.8385700  90.4141070  22.4929130  85.9530690
  91.5451370  23.4365700  85.6035470  77.2182800  20.7767270  74.9484330
  77.9274500  20.3550490  74.4631610  76.5022740  20.8442500  74.3167680
  76.8656960  16.8306600  73.9886980  77.5885090  17.3715540  74.3068200
  77.1381480  16.5570020  73.1128520  90.6748610  21.6999070  78.2558560
  91.1707730  21.4669940  79.0407440  90.4764680  20.8610910  77.8396200
  76.5549150  16.0812790  83.8909600  77.2025340  15.5310170  83.4504760
  76.9750990  16.3355940  84.7125410  92.1035770  20.3360020  80.7896240
  91.9935050  20.1816060  81.7278510  92.8643360  19.8080960  80.5471650
  90.4501490  16.2754150  87.2479240  91.0873710  16.8888290  87.6138430
  90.5976380  16.3114810  86.3028470  92.9926040  18.1667940  74.0302380
  93.9175350  18.0349120  73.8220670  92.9701830  18.2460760  74.9838830
  93.0664530  18.9378600  76.6559090  92.2716030  18.8723720  77.1852000
  93.2707810  19.8729240  76.6444440  90.0082950  32.9770150  80.6497480
  90.6042020  32.6554720  79.9731900  90.2661100  32.5041970  81.4410750
  76.3081150  16.2368460  86.6334920  75.9595970  16.6932280  87.3993100
  75.9768850  15.3425590  86.7157350  81.6151550  30.9647650  86.3997830
  81.3742910  31.2322210  85.5128350  82.5554190  31.1353380  86.4548690
  92.8755710  32.9842030  87.2008470  92.3813990  33.3810900  86.4835600
  92.2669000  32.3591240  87.5945750  77.7533550  32.3550310  87.9185890
  77.1593870  32.2235010  88.6575930  77.7457390  31.5188450  87.4527990
  87.1988570  15.6482540  86.1215920  86.3248410  15.9817650  85.9188850
  87.0899320  15.1755720  86.9467790  88.1060550  17.8553410  87.5057640
  87.7773910  17.0405170  87.1259370  89.0542850  17.8123220  87.3823330
  90.5595160  33.6265450  84.4795210  90.0998130  34.3781260  84.1053230
  89.9307620  32.9071920  84.4210010  77.3845780  29.7208690  86.8693930
  76.6579840  29.1013980  86.8019880  77.4454930  30.1149300  85.9992010
  80.9890880  31.9353690  83.6543340  81.5055900  31.3241050  83.1291600
  81.6388260  32.4382470  84.1454350  83.7286380  32.8262180  84.4812320
  84.0164190  32.5716480  83.6045330  84.2409600  32.2739540  85.0717890
  84.9463390  16.5652380  85.0608830  84.1635180  17.0397880  85.3405590
  84.6526320  15.6607210  84.9522010  89.4984460  17.2675480  83.1057920
  89.9392550  17.2120580  82.2579520  89.2292050  18.1833490  83.1768100
  91.3623030  16.8990720  81.1166740  91.3011430  15.9551940  80.9697760
  92.1415060  17.0070810  81.6620200  75.6675780  33.0383080  80.0790690
  75.4997820  32.4053760  80.7772580  74.8010290  33.2442480  79.7284880
  76.2903800  16.8699860  77.5822550  77.0483160  16.9828740  77.0086580
  75.8280970  17.7069060  77.5365980  82.8317610  18.9839130  80.5724860
  82.0192120  18.6096020  80.2320740  83.3359250  18.2284210  80.8746050
  87.3342590  15.6481580  81.8107930  87.9371960  16.2201790  82.2856450
  86.5935580  16.2121020  81.5881830  90.4777190  16.0503140  77.0848210
  90.6727820  16.9486590  77.3515640  89.6907060  15.8190220  77.5781160
  77.2738480  31.7316310  77.5240830  76.7486100  32.1124340  76.8202790
  77.1983060  32.3567080  78.2450540  78.6628950  17.3963910  76.1224520
  79.1921710  16.6093710  75.9932470  79.2957270  18.0755100  76.3560050
  80.8566790  17.1339050  79.1769910  80.2269530  16.4326360  79.3440040
  80.3171930  17.8943180  78.9603070  92.0303800  33.2903850  78.8454770
  92.2055990  32.6041590  78.2015690  91.3325370  33.8150900  78.4531440
  79.8731450  33.6798690  76.3990080  80.6050270  33.3957970  75.8513970
  80.1325120  33.4411970  77.2889460  79.0346240  29.7963420  76.4036410
  78.4055120  30.2648520  76.9522240  79.1494070  28.9512640  76.8382600
  86.4895960  23.8469080  62.5537610  86.4090010  22.9323690  62.2829320
  86.0760380  24.3436150  61.8477320  84.6214000  25.6248100  64.4346880
  83.8456100  25.1448540  64.7245450  85.2726930  24.9453750  64.2603040
  78.6379830  25.9367910  65.3122640  77.8064710  25.6816620  65.7119150
  79.2460810  26.0078680  66.0480560  88.6421430  30.0308290  63.2146010
  88.1802960  29.2595530  63.5433180  89.4546980  30.0574360  63.7198460
  78.6181090  29.9708000  65.5080660  78.9209130  29.0805740  65.3290880
  79.3624680  30.5278220  65.2802910  77.0471780  20.8969800  59.0965030
  76.1588480  21.2385770  58.9944910  77.3312970  20.6970120  58.2045860
  75.0104790  23.4975450  64.9804730  75.5820900  22.7297650  64.9808370
  75.0106330  23.7964210  64.0711340  84.8684740  32.3166300  62.8350000
  84.2496180  32.7723800  62.2644440  85.7236520  32.4717760  62.4339700
  84.0622990  28.3005290  64.4417040  83.9931270  27.3595230  64.2806170
  84.8242850  28.3906700  65.0139610  76.2529660  18.9059810  66.7673660
  76.0732500  18.0085560  67.0476420  75.8509740  19.4531680  67.4420610
  85.0928160  21.1075670  64.6685970  85.4692980  20.2347550  64.5559640
  84.9947670  21.4434370  63.7776410  79.2233170  19.4801300  60.1303410
  79.3299920  20.3805030  60.4372170  78.3125530  19.4319270  59.8398060
  88.8752280  18.6026110  61.6014310  89.6961900  18.1122680  61.6439790
  88.9086360  19.1923770  62.3546150  76.8716330  21.4020310  65.3756000
  77.5526440  21.6658680  65.9943400  76.5564380  20.5621180  65.7094010
  81.0640900  22.4487670  64.4628590  81.5719120  22.9468640  65.1033610
  81.5954140  21.6722870  64.2867950  93.1651830  20.6192860  68.1657940
  92.4604000  21.0074570  67.6473050  93.4309750  21.3143150  68.7678870
  79.3477000  17.0886230  68.7292010  79.3495440  17.6058620  67.9237910
  78.5181310  16.6116410  68.7061940  85.7348090  27.2005540  60.2281910
  85.1165360  27.6654990  59.6644630  86.2471340  27.8933020  60.6451420
  80.5979850  26.7281410  66.9065510  80.2649230  27.3550330  67.5486580
  80.7746530  27.2543290  66.1267180  89.1113760  20.5426490  64.3741850
  88.4069330  20.8311380  64.9544960  89.4725920  21.3526600  64.0141410
  79.0292330  18.7996190  66.7362460  79.3709140  19.6438240  66.4416330
  78.0908140  18.9479930  66.8527800  79.8098950  28.6962210  68.7214690
  80.4272950  29.3713290  68.4399140  78.9492070  29.1050190  68.6302190
  75.1031290  27.8862070  57.6021540  74.7259270  28.3749170  56.8706440
  75.3604360  28.5587350  58.2328070  90.7276540  30.1601620  66.6369330
  90.0440060  30.8300730  66.6286000  91.2670830  30.3582270  65.8714190
  92.1800680  19.9881280  64.7651060  91.2325590  20.0220260  64.8966490
  92.5050670  20.8020230  65.1500420  82.7120220  16.2878460  63.0607050
  83.0195200  15.7325350  62.3442550  81.7820920  16.4222920  62.8780040
  88.2635280  32.0045750  65.3514510  88.2762440  31.6008040  64.4836770
  87.7110500  32.7793040  65.2475940  89.5580700  28.7261970  60.4404680
  89.4477030  27.7836300  60.5654100  89.5548950  29.0877610  61.3267440
  87.6620720  26.9075590  66.6797120  88.0789510  26.6935700  65.8450580
  88.3860540  27.1648380  67.2505740  85.1000980  24.3527290  59.7967170
  84.1730260  24.2864670  60.0255640  85.2525800  25.2907420  59.6822410
  85.0870060  20.6244290  56.7934330  84.1473730  20.7858250  56.8786790
  85.4053320  21.3429970  56.2470320  91.6082820  25.3062810  66.7713360
  90.7801450  25.3755900  66.2963490  92.2033300  25.8917120  66.3029190
  89.1298270  25.9147590  60.3002420  88.5110690  25.5767140  59.6528720
  89.1122720  25.2707350  61.0081610  88.5724830  22.0932130  67.7168230
  88.1596010  22.9185840  67.9708220  87.8400780  21.5077170  67.5244590
  80.7057620  24.8792030  62.5786900  80.3014620  24.1669280  62.0832800
  80.7920740  24.5345270  63.4674940  81.1739320  28.5659590  64.7426110
  80.8767610  27.9605060  64.0633890  82.1239140  28.6036900  64.6315470
  79.4186240  21.6535240  66.3585940  79.9700830  21.7630580  65.5839190
  79.9329750  22.0272840  67.0741170  89.2624930  32.1391460  68.4049210
  88.7855490  32.9463650  68.2121820  88.5786720  31.4869790  68.5575420
  80.2657750  28.3041280  71.3933910  79.3686280  28.5281250  71.6407310
  80.2910620  28.4276220  70.4445310  87.3062970  25.1534400  57.3075170
  87.7456250  24.3156830  57.1612990  88.0191390  25.7863800  57.3939310
  79.0928970  25.1754600  69.9691280  78.9536740  26.0477400  70.3378680
  78.2110330  24.8327410  69.8239220  85.4158350  30.0930470  61.2756410
  85.8554260  30.8354800  60.8611800  85.3545240  30.3357040  62.1995370
  80.8909320  31.1176300  72.1776430  80.8624750  31.5219250  71.3104860
  80.7274290  30.1886660  72.0148030  90.8880110  16.4077210  55.6216210
  90.5752770  16.5004040  56.5215280  91.6492580  16.9858240  55.5713640
  77.4062250  23.7737010  60.0793550  77.2859850  24.4999100  59.4674820
  77.0963140  23.0039920  59.6021460  92.8424140  31.9003400  73.4740600
  93.3183860  32.3786290  74.1529680  93.4631300  31.8320890  72.7486100
  75.0447620  26.9452150  65.8862190  75.1228040  27.0800920  64.9417910
  75.6589300  26.2368040  66.0790310  76.2895250  28.6452340  62.2968370
  75.8823330  28.7866930  61.4421970  77.1808260  28.3612500  62.0939580
  92.2457390  29.0916250  70.6340610  92.3720450  28.8528130  69.7157790
  92.2878770  28.2600790  71.1062690  86.1074130  32.7944250  69.2035420
  86.6218800  32.7052260  70.0057850  85.2643210  33.1403950  69.4963330
  88.0828530  33.0799590  58.6319420  87.9229670  32.7902530  59.5301250
  87.9175240  32.3039720  58.0964650  80.5616910  32.8598120  60.4091040
  80.3859390  31.9433660  60.1958840  79.7072650  33.2185410  60.6488840
  87.7854660  30.5887150  57.1917420  87.0919820  30.5864440  56.5319700
  88.5277520  30.1646470  56.7611590  87.3504590  32.2149860  61.2665910
  87.8061540  31.4339240  61.5804530  87.6897110  32.9256680  61.8107090
  92.0981400  21.1448710  71.5990350  91.4825670  21.6528380  71.0705810
  91.7777820  20.2447040  71.5416290  75.1007140  27.9866320  68.4256650
  75.2638180  27.5171680  67.6076020  75.5659590  27.4789880  69.0905490
  79.8725910  17.1172080  63.4617220  79.4294060  17.8981620  63.1301740
  80.4310900  17.4401970  64.1688160  84.1595720  19.9840600  69.0652540
  83.6975090  20.1923620  69.8772480  83.7573830  19.1699950  68.7623210
  89.1600230  21.2049550  70.1949200  88.3093820  20.9055300  70.5158270
  89.0002020  21.4491560  69.2833020  86.2549940  22.7051300  72.2947990
  86.5803350  21.8715050  71.9550220  87.0430270  23.2279820  72.4426320
  82.9884730  16.7382780  58.3423050  82.3638910  16.7342650  59.0676360
  82.9014850  15.8713740  57.9459020  81.9101810  17.6619410  65.3206820
  82.2074140  18.5682240  65.2398840  82.4587370  17.1738190  64.7066390
  79.6640130  22.2405650  61.1898470  79.4381050  22.0242820  62.0945090
  78.8832660  22.6734110  60.8444440  86.8937890  22.2469020  59.7889120
  86.2946780  22.9704820  59.6052740  87.4417500  22.1845800  59.0065570
  82.1039340  23.1391230  71.8558740  82.0082940  22.1985960  71.7059140
  82.9471320  23.3606300  71.4606810  85.5002760  20.8832560  61.8192400
  85.8932330  21.2004760  61.0061090  85.8619610  20.0044440  61.9336920
  77.2349880  19.5504900  70.0092520  76.8413270  20.3980110  70.2165300
  76.5468280  18.9131270  70.2001160  83.8094930  19.6339870  73.0789260
  83.1193250  19.4412070  73.7135350  84.5527230  19.9174510  73.6113560
  74.5366930  17.4733360  64.0422600  74.2479980  18.0436220  64.7547580
  75.2812690  16.9937810  64.4053830  74.7237160  21.4153480  55.2525320
  74.6411830  22.3584240  55.3940310  74.3720220  21.2728390  54.3737670
  86.0857900  23.4738310  65.9143180  85.3539020  23.9825120  66.2633280
  85.6882240  22.6568290  65.6131960  82.5235290  20.1492510  64.3195670
  82.5271350  19.7082460  63.4700210  83.4186410  20.4709840  64.4267490
  78.3737670  20.0319000  63.2789880  78.0337720  20.5094230  64.0356930
  77.6114990  19.5784120  62.9190980  82.5855440  21.1504590  57.3102430
  82.7068260  21.1091070  58.2588250  82.2003950  22.0128740  57.1549160
  86.5483810  18.9271990  65.3266120  86.5656550  19.3780640  66.1707970
  86.2999390  18.0277630  65.5399560  81.5976940  23.4605730  56.7085730
  81.0293840  23.0123980  56.0821640  82.3065940  23.8198510  56.1750880
  89.9754560  16.3404170  71.1652500  90.3000330  15.6093830  71.6910480
  90.0111070  16.0217810  70.2633490  76.6746120  27.3617750  70.5852460
  76.2900910  26.7211420  71.1835420  76.9858310  28.0653870  71.1547190
  82.8243260  24.2094290  66.0661080  83.1913390  23.7352860  66.8122420
  82.6348320  25.0835860  66.4069420  75.6883750  18.9537980  62.1954550
  75.4030670  18.5893650  63.0333170  75.6262610  18.2218440  61.5817690
  80.6142630  23.2502930  68.3845290  80.3099700  24.1294910  68.6095650
  81.5689090  23.3102720  68.4202730  79.1424420  27.4563920  58.9812140
  78.3686680  26.9161540  58.8210860  79.8719050  26.9370530  58.6429900
  89.9012400  26.4529280  64.7738530  90.6211520  26.9484570  64.3834640
  89.6994220  25.7747170  64.1292400  85.3622340  17.8467240  58.9167920
  84.5486950  17.3480410  58.8413230  85.1684290  18.6865490  58.5004270
  85.2831200  26.5238340  70.6607530  85.2168510  25.6034010  70.4065120
  84.6536340  26.6213780  71.3752170  88.0770730  22.2186890  57.2130080
  88.9650350  22.5304120  57.0381420  88.0475820  21.3459140  56.8210660
  79.1861820  27.1244300  62.6190950  79.7040490  26.3212560  62.5647840
  78.7345840  27.0623440  63.4607780  84.0731320  28.3910580  57.8918250
  84.4147020  29.1352810  57.3961570  83.2444030  28.7041700  58.2543080
  76.6706360  24.0905670  69.5316650  76.3121300  24.7559520  70.1189990
  76.3760920  23.2589220  69.9029270  79.8719480  24.5489910  72.4156200
  79.5719620  24.6947090  71.5184020  80.6430720  23.9895200  72.3229590
  85.2147930  29.3458910  70.4111330  85.2292470  28.4139870  70.1930240
  84.5073030  29.4318670  71.0501100  90.3485000  23.5298730  56.6809940
  90.2648720  23.9612950  55.8306380  91.0679190  23.9897080  57.1136760
  91.4259140  25.9866250  69.7579910  90.7007330  26.5795030  69.5609300
  91.9534600  25.9789790  68.9593280  91.3772250  30.3840990  59.4092070
  90.7348410  29.7296610  59.6835790  90.9902910  30.7896080  58.6332740
  86.9558730  27.7126420  63.2563760  87.3082550  27.1154550  62.5965130
  86.0721060  27.3870650  63.4272010  83.0422010  28.4724110  60.6634170
  83.7293140  29.0193320  61.0441760  82.2554430  29.0164840  60.6983780
  75.1814410  24.0896930  56.1551250  76.0509260  24.3721730  56.4387170
  74.6904730  24.9032800  56.0400060  82.3449220  25.4770140  60.2759530
  82.8012000  26.2875390  60.5019720  81.9937430  25.1593280  61.1078020
  84.6481830  30.9876480  67.5051830  85.2924050  31.1935860  68.1825250
  85.0111270  30.2264880  67.0522680  78.2461000  15.8207790  60.7482050
  78.1175630  15.8125690  61.6966970  77.4223020  16.1590880  60.3973060
  85.9213910  28.9908830  66.2229280  86.5636140  28.2901990  66.3361450
  86.4463260  29.7707270  66.0426170  89.7669630  29.2757450  55.9468420
  89.5407210  28.5587890  56.5393060  89.3765830  29.0269890  55.1090170
  87.6951530  29.7903730  69.4265340  88.0307770  30.3770420  70.1043260
  86.7751870  29.6596440  69.6563130  75.5485660  33.3024310  56.7212880
  75.9083300  33.9013650  56.0670150  75.4078000  33.8484200  57.4947910
  75.2454930  17.5798910  70.2088750  74.5313450  17.7795830  70.8141360
  75.6649970  16.8038480  70.5803550  89.3485880  27.1929390  57.6082580
  89.0607580  27.6542080  58.3960460  90.1438050  26.7327160  57.8766800
  75.5327520  31.5679170  71.1955280  75.6418640  30.6273910  71.0550670
  74.8808080  31.8333920  70.5469010  83.5240110  29.8395060  72.5953400
  83.2036980  29.1204300  73.1399090  82.8498470  30.5150130  72.6689460
  81.5654280  30.6855510  57.5386550  81.5564380  31.4185200  56.9231060
  80.6452640  30.4387090  57.6313510  77.1660920  25.9070400  58.2833310
  76.5588870  26.6469300  58.2928610  77.6410270  25.9969760  57.4571510
  86.7393710  20.0721220  67.9590200  87.1074530  19.2516430  68.2869770
  85.8791910  20.1323110  68.3745850  90.1055740  19.0278160  58.7677760
  89.4768900  19.1323830  58.0535990  89.6107660  19.2474940  59.5571640
  84.5513880  30.7483750  56.2011740  84.6525860  30.5447740  55.2713720
  83.6515620  30.4942030  56.4059520  82.0739770  21.3064110  60.1835640
  81.3655920  21.7750450  60.6249250  82.3584250  20.6486120  60.8180830
  83.6995700  22.7260810  68.1828170  84.1980950  23.2006630  68.8480020
  83.8418650  21.8024330  68.3898200  86.1055200  18.0314770  61.6231430
  85.9822980  18.0500900  60.6740940  87.0539760  18.0793710  61.7429830
  83.1931990  33.2670070  60.8959410  83.4473490  33.2291460  59.9738780
  82.2444470  33.1403400  60.8887660  80.2774790  19.6149190  57.5586350
  81.1265320  20.0519340  57.4926540  79.9106060  19.9269450  58.3858410
  90.9062560  18.9428770  69.0256560  90.4036160  19.6834170  69.3650370
  91.7219220  19.3312770  68.7093350  89.1984570  24.1861950  62.4717920
  88.2574710  24.2012180  62.6465610  89.5128640  23.3997910  62.9178220
  79.1766210  25.8681550  56.0321880  79.9429480  25.7562910  56.5947310
  79.2540900  25.1719520  55.3798650  77.8712970  23.3006620  56.7154770
  77.9516560  22.3534130  56.8272170  78.7632720  23.6313500  56.8215430
  91.2010150  31.3570800  64.1472180  91.3257570  32.1801970  64.6195990
  92.0675710  31.1461530  63.7996330  78.6727680  33.4502010  63.8189310
  79.4090160  32.9017470  64.0897880  79.0568600  34.3158020  63.6795300
  75.5573160  29.5175580  59.6930820  74.6312940  29.7596720  59.6836230
  76.0229590  30.3449840  59.5715570  77.6785960  32.6348080  73.0074890
  78.4798690  32.9560130  73.4210290  77.1637780  32.2743660  73.7294800
  81.7829990  32.6232320  55.6414880  82.5758600  32.9121150  55.1896670
  81.2634340  32.1924490  54.9627360  86.5150590  28.7427950  72.9550300
  85.9088750  28.7659550  72.2146050  86.2104700  28.0110990  73.4917550
  87.9450960  32.4708240  71.5659710  88.8972710  32.3866260  71.5159950
  87.7979180  33.1349950  72.2393500  90.8360160  31.8502450  57.0651620
  90.5501670  31.4367590  56.2505800  90.6379710  32.7790160  56.9452140
  75.3983770  25.1221540  71.9510940  75.9022790  24.5428820  72.5227170
  74.6591190  25.4061770  72.4887310  82.3007390  27.8435730  55.5057230
  82.1958030  27.2288080  56.2318610  82.1331610  27.3201620  54.7220240
  82.4521710  26.5292530  71.4846460  81.6867380  27.0977530  71.4001130
  82.6337670  26.2368740  70.5914690  85.5410120  26.9055760  56.1099220
  84.9920220  27.3525060  56.7541960  86.1629380  26.4005010  56.6336890
  89.5945060  28.2597860  72.0421480  90.3354530  28.5973620  71.5388940
  88.8317740  28.4289920  71.4891250  77.4306850  23.2651130  72.8461010
  77.4712190  22.9665000  73.7546240  78.2852350  23.6658740  72.6868530
  81.2085240  25.8646680  58.0064520  81.6301660  25.6986550  58.8495910
  81.3336080  25.0546910  57.5119660  79.3712660  21.8443230  70.8135500
  78.8409120  21.3534180  70.1858840  80.0400730  22.2727430  70.2793430
  83.7212880  24.8884290  55.2541620  84.2418540  24.1733310  54.8882770
  84.3681280  25.5270160  55.5542130  88.2690720  26.3112690  70.5776690
  88.6831740  26.4657770  71.4267110  87.3341720  26.4367910  70.7402470
  88.7412890  23.6508850  72.5815840  89.3233660  22.8961170  72.4936320
  88.9174660  24.1816290  71.8047320  79.8584960  18.8105600  70.8932790
  79.7641830  18.1926350  70.1683660  79.2782350  19.5371890  70.6662700
  82.6246400  17.3678840  67.9260180  82.1763700  17.3903100  67.0805730
  81.9911600  16.9697860  68.5230480  83.0305950  26.2633170  68.5472620
  83.4494060  27.1065900  68.3748860  82.1114580  26.4005210  68.3179400
  85.3669850  23.9949350  69.9310460  85.4866060  23.3990490  70.6705300
  86.2263850  24.0319040  69.5111760  87.7057750  24.5486540  68.5072970
  87.1792970  25.0729160  67.9038110  88.0489090  25.1813930  69.1382700
  80.1044140  21.9379910  54.9522680  79.9033200  21.0747270  55.3136020
  79.9336190  21.8513270  54.0144280  80.8813370  32.5686180  69.6630350
  80.3434460  33.2932240  69.3439050  81.1347330  32.0916520  68.8727690
  82.1338620  20.5370700  71.1886280  82.7238310  20.2286550  71.8764100
  81.3158860  20.0650450  71.3446180  86.9532050  20.1536510  71.4219300
  86.2647570  19.4918050  71.3569290  87.6738070  19.7074780  71.8667760
  87.5832450  16.7488140  57.4809560  87.8634740  15.9056040  57.8368980
  86.8098180  16.9811250  57.9948310  78.9026940  19.0380530  54.9400560
  79.2052840  19.0447960  54.0319710  79.6421530  18.6878390  55.4368220
  83.7375580  33.8037390  69.9217000  83.6634280  34.7072530  70.2289370
  82.8354420  33.4849290  69.8939070  82.1211870  17.9815150  55.9256760
  81.7733870  17.3039140  55.3459210  82.3224640  17.5204660  56.7400150
  84.2860910  32.9695900  57.5443360  85.1811700  33.3080870  57.5662120
  84.3178540  32.2475310  56.9167640  77.9257070  28.3422950  55.7730360
  78.3631940  28.8852620  56.4287940  78.4104800  27.5169900  55.7826700
  75.1402870  31.1311980  63.2250620  75.4705880  30.2633040  62.9929260
  75.5693870  31.3370500  64.0555580  79.7364790  29.4620990  60.8852590
  79.4360330  29.3385960  61.7856500  79.6302280  28.6029580  60.4768320
  75.6293080  31.9982570  65.9632250  75.1924070  32.1783370  66.7956400
  76.1970760  32.7557190  65.8213970  91.2655260  31.4999570  70.2509560
  90.6657250  31.5592130  69.5073480  91.3949160  30.5604550  70.3806410
  92.5056710  29.2417390  55.5879270  91.6749670  29.3094040  56.0586500
  92.6828540  30.1321510  55.2846130  91.9613170  25.9864870  58.0913470
  92.7232080  26.5561520  58.1973160  91.9767540  25.4192070  58.8621780
  75.4617510  24.5102800  62.3221130  74.8066350  24.2414440  61.6780830
  76.2995460  24.4007280  61.8723110  92.9673140  26.8414970  62.9355400
  93.3381970  26.0582290  62.5291370  93.6075070  27.5304070  62.7572700
  89.9506900  28.2251550  68.3485720  89.1366740  28.6548710  68.6111510
  90.3581100  28.8369960  67.7354770  92.0132340  26.2799240  55.2485990
  92.2881180  27.1878120  55.1205210  91.8243080  26.2161770  56.1847980
  88.4107950  19.3044090  56.5439620  88.8292830  19.1175070  55.7036280
  88.1044010  18.4523140  56.8542550  91.9097680  24.2168230  60.2415420
  91.5341280  23.4496160  59.8096710  91.1800800  24.5990930  60.7290350
  76.4993440  24.8955370  66.8624470  76.8666480  24.8082770  67.7420490
  75.9304260  24.1321920  66.7631330  91.2997300  23.3639750  69.8754940
  91.0683390  23.1352500  68.9752890  91.5601850  24.2839300  69.8299830
  76.0509440  21.8064460  70.7682890  75.1565490  21.7731220  71.1076600
  76.5906990  22.0051250  71.5334140  89.7385370  18.5896180  72.6534640
  90.6155550  18.5979580  73.0368640  89.7506210  17.8527020  72.0426990
  74.6755590  21.7201730  58.2646460  73.7719670  21.9831930  58.0898120
  75.1596210  21.9912900  57.4846420  91.1848640  22.4425720  63.5422660
  91.7086120  21.9488370  62.9112830  91.7708060  22.5776080  64.2870230
  91.3638360  22.5265590  67.0642210  90.4141070  22.4929130  67.1787200
  91.5451370  23.4365700  66.8291980  77.2182800  20.7767270  56.1740840
  77.9274500  20.3550490  55.6888120  76.5022740  20.8442500  55.5424190
  76.8656960  16.8306600  55.2143490  77.5885090  17.3715540  55.5324710
  77.1381480  16.5570020  54.3385030  90.6748610  21.6999070  59.4815070
  91.1707730  21.4669940  60.2663950  90.4764680  20.8610910  59.0652710
  76.5549150  16.0812790  65.1166110  77.2025340  15.5310170  64.6761270
  76.9750990  16.3355940  65.9381920  92.1035770  20.3360020  62.0152750
  91.9935050  20.1816060  62.9535020  92.8643360  19.8080960  61.7728160
  90.4501490  16.2754150  68.4735750  91.0873710  16.8888290  68.8394940
  90.5976380  16.3114810  67.5284980  92.9926040  18.1667940  55.2558890
  93.9175350  18.0349120  55.0477180  92.9701830  18.2460760  56.2095340
  93.0664530  18.9378600  57.8815600  92.2716030  18.8723720  58.4108510
  93.2707810  19.8729240  57.8700950  90.0082950  32.9770150  61.8753990
  90.6042020  32.6554720  61.1988410  90.2661100  32.5041970  62.6667260
  76.3081150  16.2368460  67.8591430  75.9595970  16.6932280  68.6249610
  75.9768850  15.3425590  67.9413860  77.9145520  29.4088060  72.0244620
  77.8715150  29.0380970  72.9059080  78.0456530  30.3465630  72.1646440
  81.6151550  30.9647650  67.6254340  81.3742910  31.2322210  66.7384860
  82.5554190  31.1353380  67.6805200  83.8205970  17.4280340  71.3810850
  83.7594860  18.0202170  72.1306260  84.7606350  17.3206300  71.2361110
  86.4580530  17.0850400  71.0203140  87.0720940  17.4029690  70.3584220
  87.0030090  16.5998990  71.6399000  92.8755710  32.9842030  68.4264980
  92.3813990  33.3810900  67.7092110  92.2669000  32.3591240  68.8202260
  76.9801790  15.7644660  71.1342200  77.5284780  15.5832710  70.3708310
  77.0457100  14.9738770  71.6698510  77.7533550  32.3550310  69.1442400
  77.1593870  32.2235010  69.8832440  77.7457390  31.5188450  68.6784500
  87.1988570  15.6482540  67.3472430  86.3248410  15.9817650  67.1445360
  87.0899320  15.1755720  68.1724300  88.1060550  17.8553410  68.7314150
  87.7773910  17.0405170  68.3515880  89.0542850  17.8123220  68.6079840
  90.5595160  33.6265450  65.7051720  90.0998130  34.3781260  65.3309740
  89.9307620  32.9071920  65.6466520  77.3845780  29.7208690  68.0950440
  76.6579840  29.1013980  68.0276390  77.4454930  30.1149300  67.2248520
  80.9890880  31.9353690  64.8799850  81.5055900  31.3241050  64.3548110
  81.6388260  32.4382470  65.3710860  83.7286380  32.8262180  65.7068830
  84.0164190  32.5716480  64.8301840  84.2409600  32.2739540  66.2974400
  84.9463390  16.5652380  66.2865340  84.1635180  17.0397880  66.5662100
  84.6526320  15.6607210  66.1778520  89.4984460  17.2675480  64.3314430
  89.9392550  17.2120580  63.4836030  89.2292050  18.1833490  64.4024610
  91.3623030  16.8990720  62.3423250  91.3011430  15.9551940  62.1954270
  92.1415060  17.0070810  62.8876710  75.6675780  33.0383080  61.3047200
  75.4997820  32.4053760  62.0029090  74.8010290  33.2442480  60.9541390
  76.2903800  16.8699860  58.8079060  77.0483160  16.9828740  58.2343090
  75.8280970  17.7069060  58.7622490  82.8317610  18.9839130  61.7981370
  82.0192120  18.6096020  61.4577250  83.3359250  18.2284210  62.1002560
  87.3342590  15.6481580  63.0364440  87.9371960  16.2201790  63.5112960
  86.5935580  16.2121020  62.8138340  90.4777190  16.0503140  58.3104720
  90.6727820  16.9486590  58.5772150  89.6907060  15.8190220  58.8037670
  77.2738480  31.7316310  58.7497340  76.7486100  32.1124340  58.0459300
  77.1983060  32.3567080  59.4707050  78.6628950  17.3963910  57.3481030
  79.1921710  16.6093710  57.2188980  79.2957270  18.0755100  57.5816560
  80.8566790  17.1339050  60.4026420  80.2269530  16.4326360  60.5696550
  80.3171930  17.8943180  60.1859580  83.7958740  33.7478280  73.0737030
  84.7226050  33.5122550  73.1172990  83.7809170  34.5750280  72.5923060
  92.0303800  33.2903850  60.0711280  92.2055990  32.6041590  59.4272200
  91.3325370  33.8150900  59.6787950  80.9822350  16.4123030  72.8378910
  80.7006620  16.9156630  72.0739730  81.3642050  15.6144780  72.4721040
  79.8731450  33.6798690  57.6246590  80.6050270  33.3957970  57.0770480
  80.1325120  33.4411970  58.5145970  79.0346240  29.7963420  57.6292920
  78.4055120  30.2648520  58.1778750  79.1494070  28.9512640  58.0639110
  87.5837810  15.8276610  73.4159380  87.4703260  16.1471220  74.3110900
  88.4007550  16.2289120  73.1196660  90.3636300  32.9748140  72.8978070
  91.1561620  32.4797370  72.6904030  90.6569450  33.6538280  73.5053680
  86.4895960  23.8469080  43.7794120  86.4090010  22.9323690  43.5085830
  86.0760380  24.3436150  43.0733830  84.6214000  25.6248100  45.6603390
  83.8456100  25.1448540  45.9501960  85.2726930  24.9453750  45.4859550
  78.6379830  25.9367910  46.5379150  77.8064710  25.6816620  46.9375660
  79.2460810  26.0078680  47.2737070  88.6421430  30.0308290  44.4402520
  88.1802960  29.2595530  44.7689690  89.4546980  30.0574360  44.9454970
  78.6181090  29.9708000  46.7337170  78.9209130  29.0805740  46.5547390
  79.3624680  30.5278220  46.5059420  77.0471780  20.8969800  40.3221540
  76.1588480  21.2385770  40.2201420  77.3312970  20.6970120  39.4302370
  75.0104790  23.4975450  46.2061240  75.5820900  22.7297650  46.2064880
  75.0106330  23.7964210  45.2967850  84.8684740  32.3166300  44.0606510
  84.2496180  32.7723800  43.4900950  85.7236520  32.4717760  43.6596210
  84.0622990  28.3005290  45.6673550  83.9931270  27.3595230  45.5062680
  84.8242850  28.3906700  46.2396120  76.2529660  18.9059810  47.9930170
  76.0732500  18.0085560  48.2732930  75.8509740  19.4531680  48.6677120
  85.0928160  21.1075670  45.8942480  85.4692980  20.2347550  45.7816150
  84.9947670  21.4434370  45.0032920  79.2233170  19.4801300  41.3559920
  79.3299920  20.3805030  41.6628680  78.3125530  19.4319270  41.0654570
  88.8752280  18.6026110  42.8270820  89.6961900  18.1122680  42.8696300
  88.9086360  19.1923770  43.5802660  76.8716330  21.4020310  46.6012510
  77.5526440  21.6658680  47.2199910  76.5564380  20.5621180  46.9350520
  81.0640900  22.4487670  45.6885100  81.5719120  22.9468640  46.3290120
  81.5954140  21.6722870  45.5124460  93.1651830  20.6192860  49.3914450
  92.4604000  21.0074570  48.8729560  93.4309750  21.3143150  49.9935380
  79.3477000  17.0886230  49.9548520  79.3495440  17.6058620  49.1494420
  78.5181310  16.6116410  49.9318450  85.7348090  27.2005540  41.4538420
  85.1165360  27.6654990  40.8901140  86.2471340  27.8933020  41.8707930
  80.5979850  26.7281410  48.1322020  80.2649230  27.3550330  48.7743090
  80.7746530  27.2543290  47.3523690  89.1113760  20.5426490  45.5998360
  88.4069330  20.8311380  46.1801470  89.4725920  21.3526600  45.2397920
  79.0292330  18.7996190  47.9618970  79.3709140  19.6438240  47.6672840
  78.0908140  18.9479930  48.0784310  79.8098950  28.6962210  49.9471200
  80.4272950  29.3713290  49.6655650  78.9492070  29.1050190  49.8558700
  75.1031290  27.8862070  38.8278050  74.7259270  28.3749170  38.0962950
  75.3604360  28.5587350  39.4584580  90.7276540  30.1601620  47.8625840
  90.0440060  30.8300730  47.8542510  91.2670830  30.3582270  47.0970700
  92.1800680  19.9881280  45.9907570  91.2325590  20.0220260  46.1223000
  92.5050670  20.8020230  46.3756930  82.7120220  16.2878460  44.2863560
  83.0195200  15.7325350  43.5699060  81.7820920  16.4222920  44.1036550
  88.2635280  32.0045750  46.5771020  88.2762440  31.6008040  45.7093280
  87.7110500  32.7793040  46.4732450  89.5580700  28.7261970  41.6661190
  89.4477030  27.7836300  41.7910610  89.5548950  29.0877610  42.5523950
  87.6620720  26.9075590  47.9053630  88.0789510  26.6935700  47.0707090
  88.3860540  27.1648380  48.4762250  85.1000980  24.3527290  41.0223680
  84.1730260  24.2864670  41.2512150  85.2525800  25.2907420  40.9078920
  85.0870060  20.6244290  38.0190840  84.1473730  20.7858250  38.1043300
  85.4053320  21.3429970  37.4726830  91.6082820  25.3062810  47.9969870
  90.7801450  25.3755900  47.5220000  92.2033300  25.8917120  47.5285700
  89.1298270  25.9147590  41.5258930  88.5110690  25.5767140  40.8785230
  89.1122720  25.2707350  42.2338120  88.5724830  22.0932130  48.9424740
  88.1596010  22.9185840  49.1964730  87.8400780  21.5077170  48.7501100
  80.7057620  24.8792030  43.8043410  80.3014620  24.1669280  43.3089310
  80.7920740  24.5345270  44.6931450  81.1739320  28.5659590  45.9682620
  80.8767610  27.9605060  45.2890400  82.1239140  28.6036900  45.8571980
  79.4186240  21.6535240  47.5842450  79.9700830  21.7630580  46.8095700
  79.9329750  22.0272840  48.2997680  89.2624930  32.1391460  49.6305720
  88.7855490  32.9463650  49.4378330  88.5786720  31.4869790  49.7831930
  80.2657750  28.3041280  52.6190420  79.3686280  28.5281250  52.8663820
  80.2910620  28.4276220  51.6701820  87.3062970  25.1534400  38.5331680
  87.7456250  24.3156830  38.3869500  88.0191390  25.7863800  38.6195820
  79.0928970  25.1754600  51.1947790  78.9536740  26.0477400  51.5635190
  78.2110330  24.8327410  51.0495730  85.4158350  30.0930470  42.5012920
  85.8554260  30.8354800  42.0868310  85.3545240  30.3357040  43.4251880
  80.8909320  31.1176300  53.4032940  80.8624750  31.5219250  52.5361370
  80.7274290  30.1886660  53.2404540  90.8880110  16.4077210  36.8472720
  90.5752770  16.5004040  37.7471790  91.6492580  16.9858240  36.7970150
  77.4062250  23.7737010  41.3050060  77.2859850  24.4999100  40.6931330
  77.0963140  23.0039920  40.8277970  92.8424140  31.9003400  54.6997110
  93.3183860  32.3786290  55.3786190  93.4631300  31.8320890  53.9742610
  75.0447620  26.9452150  47.1118700  75.1228040  27.0800920  46.1674420
  75.6589300  26.2368040  47.3046820  76.2895250  28.6452340  43.5224880
  75.8823330  28.7866930  42.6678480  77.1808260  28.3612500  43.3196090
  92.2457390  29.0916250  51.8597120  92.3720450  28.8528130  50.9414300
  92.2878770  28.2600790  52.3319200  86.1074130  32.7944250  50.4291930
  86.6218800  32.7052260  51.2314360  85.2643210  33.1403950  50.7219840
  88.0828530  33.0799590  39.8575930  87.9229670  32.7902530  40.7557760
  87.9175240  32.3039720  39.3221160  80.5616910  32.8598120  41.6347550
  80.3859390  31.9433660  41.4215350  79.7072650  33.2185410  41.8745350
  87.7854660  30.5887150  38.4173930  87.0919820  30.5864440  37.7576210
  88.5277520  30.1646470  37.9868100  87.3504590  32.2149860  42.4922420
  87.8061540  31.4339240  42.8061040  87.6897110  32.9256680  43.0363600
  92.0981400  21.1448710  52.8246860  91.4825670  21.6528380  52.2962320
  91.7777820  20.2447040  52.7672800  75.1007140  27.9866320  49.6513160
  75.2638180  27.5171680  48.8332530  75.5659590  27.4789880  50.3162000
  79.8725910  17.1172080  44.6873730  79.4294060  17.8981620  44.3558250
  80.4310900  17.4401970  45.3944670  84.1595720  19.9840600  50.2909050
  83.6975090  20.1923620  51.1028990  83.7573830  19.1699950  49.9879720
  89.1600230  21.2049550  51.4205710  88.3093820  20.9055300  51.7414780
  89.0002020  21.4491560  50.5089530  86.2549940  22.7051300  53.5204500
  86.5803350  21.8715050  53.1806730  87.0430270  23.2279820  53.6682830
  82.9884730  16.7382780  39.5679560  82.3638910  16.7342650  40.2932870
  82.9014850  15.8713740  39.1715530  81.9101810  17.6619410  46.5463330
  82.2074140  18.5682240  46.4655350  82.4587370  17.1738190  45.9322900
  79.6640130  22.2405650  42.4154980  79.4381050  22.0242820  43.3201600
  78.8832660  22.6734110  42.0700950  86.8937890  22.2469020  41.0145630
  86.2946780  22.9704820  40.8309250  87.4417500  22.1845800  40.2322080
  82.1039340  23.1391230  53.0815250  82.0082940  22.1985960  52.9315650
  82.9471320  23.3606300  52.6863320  85.5002760  20.8832560  43.0448910
  85.8932330  21.2004760  42.2317600  85.8619610  20.0044440  43.1593430
  77.2349880  19.5504900  51.2349030  76.8413270  20.3980110  51.4421810
  76.5468280  18.9131270  51.4257670  83.8094930  19.6339870  54.3045770
  83.1193250  19.4412070  54.9391860  84.5527230  19.9174510  54.8370070
  74.5366930  17.4733360  45.2679110  74.2479980  18.0436220  45.9804090
  75.2812690  16.9937810  45.6310340  74.7237160  21.4153480  36.4781830
  74.6411830  22.3584240  36.6196820  74.3720220  21.2728390  35.5994180
  86.0857900  23.4738310  47.1399690  85.3539020  23.9825120  47.4889790
  85.6882240  22.6568290  46.8388470  82.5235290  20.1492510  45.5452180
  82.5271350  19.7082460  44.6956720  83.4186410  20.4709840  45.6524000
  78.3737670  20.0319000  44.5046390  78.0337720  20.5094230  45.2613440
  77.6114990  19.5784120  44.1447490  82.5855440  21.1504590  38.5358940
  82.7068260  21.1091070  39.4844760  82.2003950  22.0128740  38.3805670
  86.5483810  18.9271990  46.5522630  86.5656550  19.3780640  47.3964480
  86.2999390  18.0277630  46.7656070  81.5976940  23.4605730  37.9342240
  81.0293840  23.0123980  37.3078150  82.3065940  23.8198510  37.4007390
  89.9754560  16.3404170  52.3909010  90.3000330  15.6093830  52.9166990
  90.0111070  16.0217810  51.4890000  76.6746120  27.3617750  51.8108970
  76.2900910  26.7211420  52.4091930  76.9858310  28.0653870  52.3803700
  82.8243260  24.2094290  47.2917590  83.1913390  23.7352860  48.0378930
  82.6348320  25.0835860  47.6325930  75.6883750  18.9537980  43.4211060
  75.4030670  18.5893650  44.2589680  75.6262610  18.2218440  42.8074200
  80.6142630  23.2502930  49.6101800  80.3099700  24.1294910  49.8352160
  81.5689090  23.3102720  49.6459240  79.1424420  27.4563920  40.2068650
  78.3686680  26.9161540  40.0467370  79.8719050  26.9370530  39.8686410
  89.9012400  26.4529280  45.9995040  90.6211520  26.9484570  45.6091150
  89.6994220  25.7747170  45.3548910  85.3622340  17.8467240  40.1424430
  84.5486950  17.3480410  40.0669740  85.1684290  18.6865490  39.7260780
  85.2831200  26.5238340  51.8864040  85.2168510  25.6034010  51.6321630
  84.6536340  26.6213780  52.6008680  88.0770730  22.2186890  38.4386590
  88.9650350  22.5304120  38.2637930  88.0475820  21.3459140  38.0467170
  79.1861820  27.1244300  43.8447460  79.7040490  26.3212560  43.7904350
  78.7345840  27.0623440  44.6864290  84.0731320  28.3910580  39.1174760
  84.4147020  29.1352810  38.6218080  83.2444030  28.7041700  39.4799590
  76.6706360  24.0905670  50.7573160  76.3121300  24.7559520  51.3446500
  76.3760920  23.2589220  51.1285780  79.8719480  24.5489910  53.6412710
  79.5719620  24.6947090  52.7440530  80.6430720  23.9895200  53.5486100
  85.2147930  29.3458910  51.6367840  85.2292470  28.4139870  51.4186750
  84.5073030  29.4318670  52.2757610  90.3485000  23.5298730  37.9066450
  90.2648720  23.9612950  37.0562890  91.0679190  23.9897080  38.3393270
  91.4259140  25.9866250  50.9836420  90.7007330  26.5795030  50.7865810
  91.9534600  25.9789790  50.1849790  91.3772250  30.3840990  40.6348580
  90.7348410  29.7296610  40.9092300  90.9902910  30.7896080  39.8589250
  86.9558730  27.7126420  44.4820270  87.3082550  27.1154550  43.8221640
  86.0721060  27.3870650  44.6528520  83.0422010  28.4724110  41.8890680
  83.7293140  29.0193320  42.2698270  82.2554430  29.0164840  41.9240290
  75.1814410  24.0896930  37.3807760  76.0509260  24.3721730  37.6643680
  74.6904730  24.9032800  37.2656570  82.3449220  25.4770140  41.5016040
  82.8012000  26.2875390  41.7276230  81.9937430  25.1593280  42.3334530
  84.6481830  30.9876480  48.7308340  85.2924050  31.1935860  49.4081760
  85.0111270  30.2264880  48.2779190  78.2461000  15.8207790  41.9738560
  78.1175630  15.8125690  42.9223480  77.4223020  16.1590880  41.6229570
  85.9213910  28.9908830  47.4485790  86.5636140  28.2901990  47.5617960
  86.4463260  29.7707270  47.2682680  89.7669630  29.2757450  37.1724930
  89.5407210  28.5587890  37.7649570  89.3765830  29.0269890  36.3346680
  87.6951530  29.7903730  50.6521850  88.0307770  30.3770420  51.3299770
  86.7751870  29.6596440  50.8819640  75.5485660  33.3024310  37.9469390
  75.9083300  33.9013650  37.2926660  75.4078000  33.8484200  38.7204420
  75.2454930  17.5798910  51.4345260  74.5313450  17.7795830  52.0397870
  75.6649970  16.8038480  51.8060060  89.3485880  27.1929390  38.8339090
  89.0607580  27.6542080  39.6216970  90.1438050  26.7327160  39.1023310
  75.5327520  31.5679170  52.4211790  75.6418640  30.6273910  52.2807180
  74.8808080  31.8333920  51.7725520  83.5240110  29.8395060  53.8209910
  83.2036980  29.1204300  54.3655600  82.8498470  30.5150130  53.8945970
  81.5654280  30.6855510  38.7643060  81.5564380  31.4185200  38.1487570
  80.6452640  30.4387090  38.8570020  77.1660920  25.9070400  39.5089820
  76.5588870  26.6469300  39.5185120  77.6410270  25.9969760  38.6828020
  86.7393710  20.0721220  49.1846710  87.1074530  19.2516430  49.5126280
  85.8791910  20.1323110  49.6002360  90.1055740  19.0278160  39.9934270
  89.4768900  19.1323830  39.2792500  89.6107660  19.2474940  40.7828150
  84.5513880  30.7483750  37.4268250  84.6525860  30.5447740  36.4970230
  83.6515620  30.4942030  37.6316030  82.0739770  21.3064110  41.4092150
  81.3655920  21.7750450  41.8505760  82.3584250  20.6486120  42.0437340
  83.6995700  22.7260810  49.4084680  84.1980950  23.2006630  50.0736530
  83.8418650  21.8024330  49.6154710  86.1055200  18.0314770  42.8487940
  85.9822980  18.0500900  41.8997450  87.0539760  18.0793710  42.9686340
  83.1931990  33.2670070  42.1215920  83.4473490  33.2291460  41.1995290
  82.2444470  33.1403400  42.1144170  80.2774790  19.6149190  38.7842860
  81.1265320  20.0519340  38.7183050  79.9106060  19.9269450  39.6114920
  90.9062560  18.9428770  50.2513070  90.4036160  19.6834170  50.5906880
  91.7219220  19.3312770  49.9349860  89.1984570  24.1861950  43.6974430
  88.2574710  24.2012180  43.8722120  89.5128640  23.3997910  44.1434730
  79.1766210  25.8681550  37.2578390  79.9429480  25.7562910  37.8203820
  79.2540900  25.1719520  36.6055160  77.8712970  23.3006620  37.9411280
  77.9516560  22.3534130  38.0528680  78.7632720  23.6313500  38.0471940
  91.2010150  31.3570800  45.3728690  91.3257570  32.1801970  45.8452500
  92.0675710  31.1461530  45.0252840  78.6727680  33.4502010  45.0445820
  79.4090160  32.9017470  45.3154390  79.0568600  34.3158020  44.9051810
  75.5573160  29.5175580  40.9187330  74.6312940  29.7596720  40.9092740
  76.0229590  30.3449840  40.7972080  77.6785960  32.6348080  54.2331400
  78.4798690  32.9560130  54.6466800  77.1637780  32.2743660  54.9551310
  81.7829990  32.6232320  36.8671390  82.5758600  32.9121150  36.4153180
  81.2634340  32.1924490  36.1883870  86.5150590  28.7427950  54.1806810
  85.9088750  28.7659550  53.4402560  86.2104700  28.0110990  54.7174060
  87.9450960  32.4708240  52.7916220  88.8972710  32.3866260  52.7416460
  87.7979180  33.1349950  53.4650010  90.8360160  31.8502450  38.2908130
  90.5501670  31.4367590  37.4762310  90.6379710  32.7790160  38.1708650
  75.3983770  25.1221540  53.1767450  75.9022790  24.5428820  53.7483680
  74.6591190  25.4061770  53.7143820  82.3007390  27.8435730  36.7313740
  82.1958030  27.2288080  37.4575120  82.1331610  27.3201620  35.9476750
  82.4521710  26.5292530  52.7102970  81.6867380  27.0977530  52.6257640
  82.6337670  26.2368740  51.8171200  85.5410120  26.9055760  37.3355730
  84.9920220  27.3525060  37.9798470  86.1629380  26.4005010  37.8593400
  89.5945060  28.2597860  53.2677990  90.3354530  28.5973620  52.7645450
  88.8317740  28.4289920  52.7147760  77.4306850  23.2651130  54.0717520
  77.4712190  22.9665000  54.9802750  78.2852350  23.6658740  53.9125040
  81.2085240  25.8646680  39.2321030  81.6301660  25.6986550  40.0752420
  81.3336080  25.0546910  38.7376170  79.3712660  21.8443230  52.0392010
  78.8409120  21.3534180  51.4115350  80.0400730  22.2727430  51.5049940
  83.7212880  24.8884290  36.4798130  84.2418540  24.1733310  36.1139280
  84.3681280  25.5270160  36.7798640  88.2690720  26.3112690  51.8033200
  88.6831740  26.4657770  52.6523620  87.3341720  26.4367910  51.9658980
  88.7412890  23.6508850  53.8072350  89.3233660  22.8961170  53.7192830
  88.9174660  24.1816290  53.0303830  79.8584960  18.8105600  52.1189300
  79.7641830  18.1926350  51.3940170  79.2782350  19.5371890  51.8919210
  82.6246400  17.3678840  49.1516690  82.1763700  17.3903100  48.3062240
  81.9911600  16.9697860  49.7486990  83.0305950  26.2633170  49.7729130
  83.4494060  27.1065900  49.6005370  82.1114580  26.4005210  49.5435910
  85.3669850  23.9949350  51.1566970  85.4866060  23.3990490  51.8961810
  86.2263850  24.0319040  50.7368270  87.7057750  24.5486540  49.7329480
  87.1792970  25.0729160  49.1294620  88.0489090  25.1813930  50.3639210
  80.1044140  21.9379910  36.1779190  79.9033200  21.0747270  36.5392530
  79.9336190  21.8513270  35.2400790  80.8813370  32.5686180  50.8886860
  80.3434460  33.2932240  50.5695560  81.1347330  32.0916520  50.0984200
  82.1338620  20.5370700  52.4142790  82.7238310  20.2286550  53.1020610
  81.3158860  20.0650450  52.5702690  86.9532050  20.1536510  52.6475810
  86.2647570  19.4918050  52.5825800  87.6738070  19.7074780  53.0924270
  87.5832450  16.7488140  38.7066070  87.8634740  15.9056040  39.0625490
  86.8098180  16.9811250  39.2204820  78.9026940  19.0380530  36.1657070
  79.2052840  19.0447960  35.2576220  79.6421530  18.6878390  36.6624730
  83.7375580  33.8037390  51.1473510  83.6634280  34.7072530  51.4545880
  82.8354420  33.4849290  51.1195580  82.1211870  17.9815150  37.1513270
  81.7733870  17.3039140  36.5715720  82.3224640  17.5204660  37.9656660
  84.2860910  32.9695900  38.7699870  85.1811700  33.3080870  38.7918630
  84.3178540  32.2475310  38.1424150  77.9257070  28.3422950  36.9986870
  78.3631940  28.8852620  37.6544450  78.4104800  27.5169900  37.0083210
  75.1402870  31.1311980  44.4507130  75.4705880  30.2633040  44.2185770
  75.5693870  31.3370500  45.2812090  79.7364790  29.4620990  42.1109100
  79.4360330  29.3385960  43.0113010  79.6302280  28.6029580  41.7024830
  91.2655260  31.4999570  51.4766070  90.6657250  31.5592130  50.7329990
  91.3949160  30.5604550  51.6062920  92.5056710  29.2417390  36.8135780
  91.6749670  29.3094040  37.2843010  92.6828540  30.1321510  36.5102640
  91.9613170  25.9864870  39.3169980  92.7232080  26.5561520  39.4229670
  91.9767540  25.4192070  40.0878290  75.4617510  24.5102800  43.5477640
  74.8066350  24.2414440  42.9037340  76.2995460  24.4007280  43.0979620
  92.9673140  26.8414970  44.1611910  93.3381970  26.0582290  43.7547880
  93.6075070  27.5304070  43.9829210  89.9506900  28.2251550  49.5742230
  89.1366740  28.6548710  49.8368020  90.3581100  28.8369960  48.9611280
  92.0132340  26.2799240  36.4742500  92.2881180  27.1878120  36.3461720
  91.8243080  26.2161770  37.4104490  88.4107950  19.3044090  37.7696130
  88.8292830  19.1175070  36.9292790  88.1044010  18.4523140  38.0799060
  91.9097680  24.2168230  41.4671930  91.5341280  23.4496160  41.0353220
  91.1800800  24.5990930  41.9546860  76.4993440  24.8955370  48.0880980
  76.8666480  24.8082770  48.9677000  75.9304260  24.1321920  47.9887840
  91.2997300  23.3639750  51.1011450  91.0683390  23.1352500  50.2009400
  91.5601850  24.2839300  51.0556340  76.0509440  21.8064460  51.9939400
  75.1565490  21.7731220  52.3333110  76.5906990  22.0051250  52.7590650
  89.7385370  18.5896180  53.8791150  90.6155550  18.5979580  54.2625150
  89.7506210  17.8527020  53.2683500  74.6755590  21.7201730  39.4902970
  73.7719670  21.9831930  39.3154630  75.1596210  21.9912900  38.7102930
  91.1848640  22.4425720  44.7679170  91.7086120  21.9488370  44.1369340
  91.7708060  22.5776080  45.5126740  91.3638360  22.5265590  48.2898720
  90.4141070  22.4929130  48.4043710  91.5451370  23.4365700  48.0548490
  77.2182800  20.7767270  37.3997350  77.9274500  20.3550490  36.9144630
  76.5022740  20.8442500  36.7680700  76.8656960  16.8306600  36.4400000
  77.5885090  17.3715540  36.7581220  77.1381480  16.5570020  35.5641540
  90.6748610  21.6999070  40.7071580  91.1707730  21.4669940  41.4920460
  90.4764680  20.8610910  40.2909220  76.5549150  16.0812790  46.3422620
  77.2025340  15.5310170  45.9017780  76.9750990  16.3355940  47.1638430
  92.1035770  20.3360020  43.2409260  91.9935050  20.1816060  44.1791530
  92.8643360  19.8080960  42.9984670  90.4501490  16.2754150  49.6992260
  91.0873710  16.8888290  50.0651450  90.5976380  16.3114810  48.7541490
  92.9926040  18.1667940  36.4815400  93.9175350  18.0349120  36.2733690
  92.9701830  18.2460760  37.4351850  93.0664530  18.9378600  39.1072110
  92.2716030  18.8723720  39.6365020  93.2707810  19.8729240  39.0957460
  90.0082950  32.9770150  43.1010500  90.6042020  32.6554720  42.4244920
  90.2661100  32.5041970  43.8923770  76.3081150  16.2368460  49.0847940
  75.9595970  16.6932280  49.8506120  75.9768850  15.3425590  49.1670370
  77.9145520  29.4088060  53.2501130  77.8715150  29.0380970  54.1315590
  78.0456530  30.3465630  53.3902950  81.6151550  30.9647650  48.8510850
  81.3742910  31.2322210  47.9641370  82.5554190  31.1353380  48.9061710
  83.8205970  17.4280340  52.6067360  83.7594860  18.0202170  53.3562770
  84.7606350  17.3206300  52.4617620  86.4580530  17.0850400  52.2459650
  87.0720940  17.4029690  51.5840730  87.0030090  16.5998990  52.8655510
  76.9801790  15.7644660  52.3598710  77.5284780  15.5832710  51.5964820
  77.0457100  14.9738770  52.8955020  87.1988570  15.6482540  48.5728940
  86.3248410  15.9817650  48.3701870  87.0899320  15.1755720  49.3980810
  88.1060550  17.8553410  49.9570660  87.7773910  17.0405170  49.5772390
  89.0542850  17.8123220  49.8336350  90.5595160  33.6265450  46.9308230
  90.0998130  34.3781260  46.5566250  89.9307620  32.9071920  46.8723030
  77.3845780  29.7208690  49.3206950  76.6579840  29.1013980  49.2532900
  77.4454930  30.1149300  48.4505030  80.9890880  31.9353690  46.1056360
  81.5055900  31.3241050  45.5804620  81.6388260  32.4382470  46.5967370
  83.7286380  32.8262180  46.9325340  84.0164190  32.5716480  46.0558350
  84.2409600  32.2739540  47.5230910  84.9463390  16.5652380  47.5121850
  84.1635180  17.0397880  47.7918610  84.6526320  15.6607210  47.4035030
  89.4984460  17.2675480  45.5570940  89.9392550  17.2120580  44.7092540
  89.2292050  18.1833490  45.6281120  91.3623030  16.8990720  43.5679760
  91.3011430  15.9551940  43.4210780  92.1415060  17.0070810  44.1133220
  75.6675780  33.0383080  42.5303710  75.4997820  32.4053760  43.2285600
  74.8010290  33.2442480  42.1797900  76.2903800  16.8699860  40.0335570
  77.0483160  16.9828740  39.4599600  75.8280970  17.7069060  39.9879000
  82.8317610  18.9839130  43.0237880  82.0192120  18.6096020  42.6833760
  83.3359250  18.2284210  43.3259070  87.3342590  15.6481580  44.2620950
  87.9371960  16.2201790  44.7369470  86.5935580  16.2121020  44.0394850
  90.4777190  16.0503140  39.5361230  90.6727820  16.9486590  39.8028660
  89.6907060  15.8190220  40.0294180  77.2738480  31.7316310  39.9753850
  76.7486100  32.1124340  39.2715810  77.1983060  32.3567080  40.6963560
  78.6628950  17.3963910  38.5737540  79.1921710  16.6093710  38.4445490
  79.2957270  18.0755100  38.8073070  80.8566790  17.1339050  41.6282930
  80.2269530  16.4326360  41.7953060  80.3171930  17.8943180  41.4116090
  83.7958740  33.7478280  54.2993540  84.7226050  33.5122550  54.3429500
  83.7809170  34.5750280  53.8179570  92.0303800  33.2903850  41.2967790
  92.2055990  32.6041590  40.6528710  91.3325370  33.8150900  40.9044460
  80.9822350  16.4123030  54.0635420  80.7006620  16.9156630  53.2996240
  81.3642050  15.6144780  53.6977550  79.8731450  33.6798690  38.8503100
  80.6050270  33.3957970  38.3026990  80.1325120  33.4411970  39.7402480
  79.0346240  29.7963420  38.8549430  78.4055120  30.2648520  39.4035260
  79.1494070  28.9512640  39.2895620  87.5837810  15.8276610  54.6415890
  87.4703260  16.1471220  55.5367410  88.4007550  16.2289120  54.3453170
  90.3636300  32.9748140  54.1234580  91.1561620  32.4797370  53.9160540
  90.6569450  33.6538280  54.7310190  86.4895960  23.8469080  25.0050630
  86.4090010  22.9323690  24.7342340  86.0760380  24.3436150  24.2990340
  84.6214000  25.6248100  26.8859900  83.8456100  25.1448540  27.1758470
  85.2726930  24.9453750  26.7116060  78.6379830  25.9367910  27.7635660
  77.8064710  25.6816620  28.1632170  79.2460810  26.0078680  28.4993580
  88.6421430  30.0308290  25.6659030  88.1802960  29.2595530  25.9946200
  89.4546980  30.0574360  26.1711480  78.6181090  29.9708000  27.9593680
  78.9209130  29.0805740  27.7803900  79.3624680  30.5278220  27.7315930
  77.0471780  20.8969800  21.5478050  76.1588480  21.2385770  21.4457930
  77.3312970  20.6970120  20.6558880  75.0104790  23.4975450  27.4317750
  75.5820900  22.7297650  27.4321390  75.0106330  23.7964210  26.5224360
  84.8684740  32.3166300  25.2863020  84.2496180  32.7723800  24.7157460
  85.7236520  32.4717760  24.8852720  84.0622990  28.3005290  26.8930060
  83.9931270  27.3595230  26.7319190  84.8242850  28.3906700  27.4652630
  76.2529660  18.9059810  29.2186680  76.0732500  18.0085560  29.4989440
  75.8509740  19.4531680  29.8933630  85.0928160  21.1075670  27.1198990
  85.4692980  20.2347550  27.0072660  84.9947670  21.4434370  26.2289430
  79.2233170  19.4801300  22.5816430  79.3299920  20.3805030  22.8885190
  78.3125530  19.4319270  22.2911080  88.8752280  18.6026110  24.0527330
  89.6961900  18.1122680  24.0952810  88.9086360  19.1923770  24.8059170
  76.8716330  21.4020310  27.8269020  77.5526440  21.6658680  28.4456420
  76.5564380  20.5621180  28.1607030  81.0640900  22.4487670  26.9141610
  81.5719120  22.9468640  27.5546630  81.5954140  21.6722870  26.7380970
  93.1651830  20.6192860  30.6170960  92.4604000  21.0074570  30.0986070
  93.4309750  21.3143150  31.2191890  79.3477000  17.0886230  31.1805030
  79.3495440  17.6058620  30.3750930  78.5181310  16.6116410  31.1574960
  85.7348090  27.2005540  22.6794930  85.1165360  27.6654990  22.1157650
  86.2471340  27.8933020  23.0964440  80.5979850  26.7281410  29.3578530
  80.2649230  27.3550330  29.9999600  80.7746530  27.2543290  28.5780200
  89.1113760  20.5426490  26.8254870  88.4069330  20.8311380  27.4057980
  89.4725920  21.3526600  26.4654430  79.0292330  18.7996190  29.1875480
  79.3709140  19.6438240  28.8929350  78.0908140  18.9479930  29.3040820
  79.8098950  28.6962210  31.1727710  80.4272950  29.3713290  30.8912160
  78.9492070  29.1050190  31.0815210  75.1031290  27.8862070  20.0534560
  74.7259270  28.3749170  19.3219460  75.3604360  28.5587350  20.6841090
  90.7276540  30.1601620  29.0882350  90.0440060  30.8300730  29.0799020
  91.2670830  30.3582270  28.3227210  92.1800680  19.9881280  27.2164080
  91.2325590  20.0220260  27.3479510  92.5050670  20.8020230  27.6013440
  82.7120220  16.2878460  25.5120070  83.0195200  15.7325350  24.7955570
  81.7820920  16.4222920  25.3293060  88.2635280  32.0045750  27.8027530
  88.2762440  31.6008040  26.9349790  87.7110500  32.7793040  27.6988960
  89.5580700  28.7261970  22.8917700  89.4477030  27.7836300  23.0167120
  89.5548950  29.0877610  23.7780460  87.6620720  26.9075590  29.1310140
  88.0789510  26.6935700  28.2963600  88.3860540  27.1648380  29.7018760
  85.1000980  24.3527290  22.2480190  84.1730260  24.2864670  22.4768660
  85.2525800  25.2907420  22.1335430  85.0870060  20.6244290  19.2447350
  84.1473730  20.7858250  19.3299810  85.4053320  21.3429970  18.6983340
  91.6082820  25.3062810  29.2226380  90.7801450  25.3755900  28.7476510
  92.2033300  25.8917120  28.7542210  89.1298270  25.9147590  22.7515440
  88.5110690  25.5767140  22.1041740  89.1122720  25.2707350  23.4594630
  88.5724830  22.0932130  30.1681250  88.1596010  22.9185840  30.4221240
  87.8400780  21.5077170  29.9757610  80.7057620  24.8792030  25.0299920
  80.3014620  24.1669280  24.5345820  80.7920740  24.5345270  25.9187960
  81.1739320  28.5659590  27.1939130  80.8767610  27.9605060  26.5146910
  82.1239140  28.6036900  27.0828490  79.4186240  21.6535240  28.8098960
  79.9700830  21.7630580  28.0352210  79.9329750  22.0272840  29.5254190
  89.2624930  32.1391460  30.8562230  88.7855490  32.9463650  30.6634840
  88.5786720  31.4869790  31.0088440  80.2657750  28.3041280  33.8446930
  79.3686280  28.5281250  34.0920330  80.2910620  28.4276220  32.8958330
  87.3062970  25.1534400  19.7588190  87.7456250  24.3156830  19.6126010
  88.0191390  25.7863800  19.8452330  79.0928970  25.1754600  32.4204300
  78.9536740  26.0477400  32.7891700  78.2110330  24.8327410  32.2752240
  85.4158350  30.0930470  23.7269430  85.8554260  30.8354800  23.3124820
  85.3545240  30.3357040  24.6508390  80.8909320  31.1176300  34.6289450
  80.8624750  31.5219250  33.7617880  80.7274290  30.1886660  34.4661050
  90.8880110  16.4077210  18.0729230  90.5752770  16.5004040  18.9728300
  91.6492580  16.9858240  18.0226660  77.4062250  23.7737010  22.5306570
  77.2859850  24.4999100  21.9187840  77.0963140  23.0039920  22.0534480
  92.8424140  31.9003400  35.9253620  93.3183860  32.3786290  36.6042700
  93.4631300  31.8320890  35.1999120  75.0447620  26.9452150  28.3375210
  75.1228040  27.0800920  27.3930930  75.6589300  26.2368040  28.5303330
  76.2895250  28.6452340  24.7481390  75.8823330  28.7866930  23.8934990
  77.1808260  28.3612500  24.5452600  92.2457390  29.0916250  33.0853630
  92.3720450  28.8528130  32.1670810  92.2878770  28.2600790  33.5575710
  86.1074130  32.7944250  31.6548440  86.6218800  32.7052260  32.4570870
  85.2643210  33.1403950  31.9476350  88.0828530  33.0799590  21.0832440
  87.9229670  32.7902530  21.9814270  87.9175240  32.3039720  20.5477670
  80.5616910  32.8598120  22.8604060  80.3859390  31.9433660  22.6471860
  79.7072650  33.2185410  23.1001860  87.7854660  30.5887150  19.6430440
  87.0919820  30.5864440  18.9832720  88.5277520  30.1646470  19.2124610
  87.3504590  32.2149860  23.7178930  87.8061540  31.4339240  24.0317550
  87.6897110  32.9256680  24.2620110  92.0981400  21.1448710  34.0503370
  91.4825670  21.6528380  33.5218830  91.7777820  20.2447040  33.9929310
  75.1007140  27.9866320  30.8769670  75.2638180  27.5171680  30.0589040
  75.5659590  27.4789880  31.5418510  79.8725910  17.1172080  25.9130240
  79.4294060  17.8981620  25.5814760  80.4310900  17.4401970  26.6201180
  84.1595720  19.9840600  31.5165560  83.6975090  20.1923620  32.3285500
  83.7573830  19.1699950  31.2136230  89.1600230  21.2049550  32.6462220
  88.3093820  20.9055300  32.9671290  89.0002020  21.4491560  31.7346040
  86.2549940  22.7051300  34.7461010  86.5803350  21.8715050  34.4063240
  87.0430270  23.2279820  34.8939340  82.9884730  16.7382780  20.7936070
  82.3638910  16.7342650  21.5189380  82.9014850  15.8713740  20.3972040
  81.9101810  17.6619410  27.7719840  82.2074140  18.5682240  27.6911860
  82.4587370  17.1738190  27.1579410  79.6640130  22.2405650  23.6411490
  79.4381050  22.0242820  24.5458110  78.8832660  22.6734110  23.2957460
  86.8937890  22.2469020  22.2402140  86.2946780  22.9704820  22.0565760
  87.4417500  22.1845800  21.4578590  82.1039340  23.1391230  34.3071760
  82.0082940  22.1985960  34.1572160  82.9471320  23.3606300  33.9119830
  85.5002760  20.8832560  24.2705420  85.8932330  21.2004760  23.4574110
  85.8619610  20.0044440  24.3849940  77.2349880  19.5504900  32.4605540
  76.8413270  20.3980110  32.6678320  76.5468280  18.9131270  32.6514180
  83.8094930  19.6339870  35.5302280  83.1193250  19.4412070  36.1648370
  84.5527230  19.9174510  36.0626580  74.5366930  17.4733360  26.4935620
  74.2479980  18.0436220  27.2060600  75.2812690  16.9937810  26.8566850
  74.7237160  21.4153480  17.7038340  74.6411830  22.3584240  17.8453330
  74.3720220  21.2728390  16.8250690  86.0857900  23.4738310  28.3656200
  85.3539020  23.9825120  28.7146300  85.6882240  22.6568290  28.0644980
  82.5235290  20.1492510  26.7708690  82.5271350  19.7082460  25.9213230
  83.4186410  20.4709840  26.8780510  78.3737670  20.0319000  25.7302900
  78.0337720  20.5094230  26.4869950  77.6114990  19.5784120  25.3704000
  82.5855440  21.1504590  19.7615450  82.7068260  21.1091070  20.7101270
  82.2003950  22.0128740  19.6062180  86.5483810  18.9271990  27.7779140
  86.5656550  19.3780640  28.6220990  86.2999390  18.0277630  27.9912580
  81.5976940  23.4605730  19.1598750  81.0293840  23.0123980  18.5334660
  82.3065940  23.8198510  18.6263900  89.9754560  16.3404170  33.6165520
  90.3000330  15.6093830  34.1423500  90.0111070  16.0217810  32.7146510
  76.6746120  27.3617750  33.0365480  76.2900910  26.7211420  33.6348440
  76.9858310  28.0653870  33.6060210  82.8243260  24.2094290  28.5174100
  83.1913390  23.7352860  29.2635440  82.6348320  25.0835860  28.8582440
  75.6883750  18.9537980  24.6467570  75.4030670  18.5893650  25.4846190
  75.6262610  18.2218440  24.0330710  80.6142630  23.2502930  30.8358310
  80.3099700  24.1294910  31.0608670  81.5689090  23.3102720  30.8715750
  79.1424420  27.4563920  21.4325160  78.3686680  26.9161540  21.2723880
  79.8719050  26.9370530  21.0942920  89.9012400  26.4529280  27.2251550
  90.6211520  26.9484570  26.8347660  89.6994220  25.7747170  26.5805420
  85.3622340  17.8467240  21.3680940  84.5486950  17.3480410  21.2926250
  85.1684290  18.6865490  20.9517290  85.2831200  26.5238340  33.1120550
  85.2168510  25.6034010  32.8578140  84.6536340  26.6213780  33.8265190
  88.0770730  22.2186890  19.6643100  88.9650350  22.5304120  19.4894440
  88.0475820  21.3459140  19.2723680  79.1861820  27.1244300  25.0703970
  79.7040490  26.3212560  25.0160860  78.7345840  27.0623440  25.9120800
  84.0731320  28.3910580  20.3431270  84.4147020  29.1352810  19.8474590
  83.2444030  28.7041700  20.7056100  76.6706360  24.0905670  31.9829670
  76.3121300  24.7559520  32.5703010  76.3760920  23.2589220  32.3542290
  79.8719480  24.5489910  34.8669220  79.5719620  24.6947090  33.9697040
  80.6430720  23.9895200  34.7742610  85.2147930  29.3458910  32.8624350
  85.2292470  28.4139870  32.6443260  84.5073030  29.4318670  33.5014120
  90.3485000  23.5298730  19.1322960  90.2648720  23.9612950  18.2819400
  91.0679190  23.9897080  19.5649780  91.4259140  25.9866250  32.2092930
  90.7007330  26.5795030  32.0122320  91.9534600  25.9789790  31.4106300
  91.3772250  30.3840990  21.8605090  90.7348410  29.7296610  22.1348810
  90.9902910  30.7896080  21.0845760  86.9558730  27.7126420  25.7076780
  87.3082550  27.1154550  25.0478150  86.0721060  27.3870650  25.8785030
  83.0422010  28.4724110  23.1147190  83.7293140  29.0193320  23.4954780
  82.2554430  29.0164840  23.1496800  75.1814410  24.0896930  18.6064270
  76.0509260  24.3721730  18.8900190  74.6904730  24.9032800  18.4913080
  82.3449220  25.4770140  22.7272550  82.8012000  26.2875390  22.9532740
  81.9937430  25.1593280  23.5591040  84.6481830  30.9876480  29.9564850
  85.2924050  31.1935860  30.6338270  85.0111270  30.2264880  29.5035700
  78.2461000  15.8207790  23.1995070  78.1175630  15.8125690  24.1479990
  77.4223020  16.1590880  22.8486080  85.9213910  28.9908830  28.6742300
  86.5636140  28.2901990  28.7874470  86.4463260  29.7707270  28.4939190
  89.7669630  29.2757450  18.3981440  89.5407210  28.5587890  18.9906080
  89.3765830  29.0269890  17.5603190  87.6951530  29.7903730  31.8778360
  88.0307770  30.3770420  32.5556280  86.7751870  29.6596440  32.1076150
  75.5485660  33.3024310  19.1725900  75.9083300  33.9013650  18.5183170
  75.4078000  33.8484200  19.9460930  75.2454930  17.5798910  32.6601770
  74.5313450  17.7795830  33.2654380  75.6649970  16.8038480  33.0316570
  89.3485880  27.1929390  20.0595600  89.0607580  27.6542080  20.8473480
  90.1438050  26.7327160  20.3279820  75.5327520  31.5679170  33.6468300
  75.6418640  30.6273910  33.5063690  74.8808080  31.8333920  32.9982030
  83.5240110  29.8395060  35.0466420  83.2036980  29.1204300  35.5912110
  82.8498470  30.5150130  35.1202480  81.5654280  30.6855510  19.9899570
  81.5564380  31.4185200  19.3744080  80.6452640  30.4387090  20.0826530
  77.1660920  25.9070400  20.7346330  76.5588870  26.6469300  20.7441630
  77.6410270  25.9969760  19.9084530  86.7393710  20.0721220  30.4103220
  87.1074530  19.2516430  30.7382790  85.8791910  20.1323110  30.8258870
  90.1055740  19.0278160  21.2190780  89.4768900  19.1323830  20.5049010
  89.6107660  19.2474940  22.0084660  84.5513880  30.7483750  18.6524760
  84.6525860  30.5447740  17.7226740  83.6515620  30.4942030  18.8572540
  82.0739770  21.3064110  22.6348660  81.3655920  21.7750450  23.0762270
  82.3584250  20.6486120  23.2693850  83.6995700  22.7260810  30.6341190
  84.1980950  23.2006630  31.2993040  83.8418650  21.8024330  30.8411220
  86.1055200  18.0314770  24.0744450  85.9822980  18.0500900  23.1253960
  87.0539760  18.0793710  24.1942850  83.1931990  33.2670070  23.3472430
  83.4473490  33.2291460  22.4251800  82.2444470  33.1403400  23.3400680
  80.2774790  19.6149190  20.0099370  81.1265320  20.0519340  19.9439560
  79.9106060  19.9269450  20.8371430  90.9062560  18.9428770  31.4769580
  90.4036160  19.6834170  31.8163390  91.7219220  19.3312770  31.1606370
  89.1984570  24.1861950  24.9230940  88.2574710  24.2012180  25.0978630
  89.5128640  23.3997910  25.3691240  79.1766210  25.8681550  18.4834900
  79.9429480  25.7562910  19.0460330  79.2540900  25.1719520  17.8311670
  77.8712970  23.3006620  19.1667790  77.9516560  22.3534130  19.2785190
  78.7632720  23.6313500  19.2728450  91.2010150  31.3570800  26.5985200
  91.3257570  32.1801970  27.0709010  92.0675710  31.1461530  26.2509350
  78.6727680  33.4502010  26.2702330  79.4090160  32.9017470  26.5410900
  79.0568600  34.3158020  26.1308320  75.5573160  29.5175580  22.1443840
  74.6312940  29.7596720  22.1349250  76.0229590  30.3449840  22.0228590
  77.6785960  32.6348080  35.4587910  78.4798690  32.9560130  35.8723310
  77.1637780  32.2743660  36.1807820  81.7829990  32.6232320  18.0927900
  82.5758600  32.9121150  17.6409690  81.2634340  32.1924490  17.4140380
  86.5150590  28.7427950  35.4063320  85.9088750  28.7659550  34.6659070
  86.2104700  28.0110990  35.9430570  87.9450960  32.4708240  34.0172730
  88.8972710  32.3866260  33.9672970  87.7979180  33.1349950  34.6906520
  90.8360160  31.8502450  19.5164640  90.5501670  31.4367590  18.7018820
  90.6379710  32.7790160  19.3965160  75.3983770  25.1221540  34.4023960
  75.9022790  24.5428820  34.9740190  74.6591190  25.4061770  34.9400330
  82.3007390  27.8435730  17.9570250  82.1958030  27.2288080  18.6831630
  82.1331610  27.3201620  17.1733260  82.4521710  26.5292530  33.9359480
  81.6867380  27.0977530  33.8514150  82.6337670  26.2368740  33.0427710
  85.5410120  26.9055760  18.5612240  84.9920220  27.3525060  19.2054980
  86.1629380  26.4005010  19.0849910  89.5945060  28.2597860  34.4934500
  90.3354530  28.5973620  33.9901960  88.8317740  28.4289920  33.9404270
  77.4306850  23.2651130  35.2974030  77.4712190  22.9665000  36.2059260
  78.2852350  23.6658740  35.1381550  81.2085240  25.8646680  20.4577540
  81.6301660  25.6986550  21.3008930  81.3336080  25.0546910  19.9632680
  79.3712660  21.8443230  33.2648520  78.8409120  21.3534180  32.6371860
  80.0400730  22.2727430  32.7306450  83.7212880  24.8884290  17.7054640
  84.2418540  24.1733310  17.3395790  84.3681280  25.5270160  18.0055150
  88.2690720  26.3112690  33.0289710  88.6831740  26.4657770  33.8780130
  87.3341720  26.4367910  33.1915490  88.7412890  23.6508850  35.0328860
  89.3233660  22.8961170  34.9449340  88.9174660  24.1816290  34.2560340
  79.8584960  18.8105600  33.3445810  79.7641830  18.1926350  32.6196680
  79.2782350  19.5371890  33.1175720  82.6246400  17.3678840  30.3773200
  82.1763700  17.3903100  29.5318750  81.9911600  16.9697860  30.9743500
  83.0305950  26.2633170  30.9985640  83.4494060  27.1065900  30.8261880
  82.1114580  26.4005210  30.7692420  85.3669850  23.9949350  32.3823480
  85.4866060  23.3990490  33.1218320  86.2263850  24.0319040  31.9624780
  87.7057750  24.5486540  30.9585990  87.1792970  25.0729160  30.3551130
  88.0489090  25.1813930  31.5895720  80.1044140  21.9379910  17.4035700
  79.9033200  21.0747270  17.7649040  79.9336190  21.8513270  16.4657300
  80.8813370  32.5686180  32.1143370  80.3434460  33.2932240  31.7952070
  81.1347330  32.0916520  31.3240710  82.1338620  20.5370700  33.6399300
  82.7238310  20.2286550  34.3277120  81.3158860  20.0650450  33.7959200
  86.9532050  20.1536510  33.8732320  86.2647570  19.4918050  33.8082310
  87.6738070  19.7074780  34.3180780  87.5832450  16.7488140  19.9322580
  87.8634740  15.9056040  20.2882000  86.8098180  16.9811250  20.4461330
  78.9026940  19.0380530  17.3913580  79.2052840  19.0447960  16.4832730
  79.6421530  18.6878390  17.8881240  83.7375580  33.8037390  32.3730020
  83.6634280  34.7072530  32.6802390  82.8354420  33.4849290  32.3452090
  82.1211870  17.9815150  18.3769780  81.7733870  17.3039140  17.7972230
  82.3224640  17.5204660  19.1913170  84.2860910  32.9695900  19.9956380
  85.1811700  33.3080870  20.0175140  84.3178540  32.2475310  19.3680660
  77.9257070  28.3422950  18.2243380  78.3631940  28.8852620  18.8800960
  78.4104800  27.5169900  18.2339720  75.1402870  31.1311980  25.6763640
  75.4705880  30.2633040  25.4442280  75.5693870  31.3370500  26.5068600
  79.7364790  29.4620990  23.3365610  79.4360330  29.3385960  24.2369520
  79.6302280  28.6029580  22.9281340  75.6293080  31.9982570  28.4145270
  75.1924070  32.1783370  29.2469420  76.1970760  32.7557190  28.2726990
  91.2655260  31.4999570  32.7022580  90.6657250  31.5592130  31.9586500
  91.3949160  30.5604550  32.8319430  92.5056710  29.2417390  18.0392290
  91.6749670  29.3094040  18.5099520  92.6828540  30.1321510  17.7359150
  91.9613170  25.9864870  20.5426490  92.7232080  26.5561520  20.6486180
  91.9767540  25.4192070  21.3134800  75.4617510  24.5102800  24.7734150
  74.8066350  24.2414440  24.1293850  76.2995460  24.4007280  24.3236130
  92.9673140  26.8414970  25.3868420  93.3381970  26.0582290  24.9804390
  93.6075070  27.5304070  25.2085720  89.9506900  28.2251550  30.7998740
  89.1366740  28.6548710  31.0624530  90.3581100  28.8369960  30.1867790
  92.0132340  26.2799240  17.6999010  92.2881180  27.1878120  17.5718230
  91.8243080  26.2161770  18.6361000  88.4107950  19.3044090  18.9952640
  88.8292830  19.1175070  18.1549300  88.1044010  18.4523140  19.3055570
  91.9097680  24.2168230  22.6928440  91.5341280  23.4496160  22.2609730
  91.1800800  24.5990930  23.1803370  76.4993440  24.8955370  29.3137490
  76.8666480  24.8082770  30.1933510  75.9304260  24.1321920  29.2144350
  91.2997300  23.3639750  32.3267960  91.0683390  23.1352500  31.4265910
  91.5601850  24.2839300  32.2812850  76.0509440  21.8064460  33.2195910
  75.1565490  21.7731220  33.5589620  76.5906990  22.0051250  33.9847160
  89.7385370  18.5896180  35.1047660  90.6155550  18.5979580  35.4881660
  89.7506210  17.8527020  34.4940010  74.6755590  21.7201730  20.7159480
  73.7719670  21.9831930  20.5411140  75.1596210  21.9912900  19.9359440
  91.1848640  22.4425720  25.9935680  91.7086120  21.9488370  25.3625850
  91.7708060  22.5776080  26.7383250  91.3638360  22.5265590  29.5155230
  90.4141070  22.4929130  29.6300220  91.5451370  23.4365700  29.2805000
  77.2182800  20.7767270  18.6253860  77.9274500  20.3550490  18.1401140
  76.5022740  20.8442500  17.9937210  76.8656960  16.8306600  17.6656510
  77.5885090  17.3715540  17.9837730  77.1381480  16.5570020  16.7898050
  90.6748610  21.6999070  21.9328090  91.1707730  21.4669940  22.7176970
  90.4764680  20.8610910  21.5165730  76.5549150  16.0812790  27.5679130
  77.2025340  15.5310170  27.1274290  76.9750990  16.3355940  28.3894940
  92.1035770  20.3360020  24.4665770  91.9935050  20.1816060  25.4048040
  92.8643360  19.8080960  24.2241180  90.4501490  16.2754150  30.9248770
  91.0873710  16.8888290  31.2907960  90.5976380  16.3114810  29.9798000
  92.9926040  18.1667940  17.7071910  93.9175350  18.0349120  17.4990200
  92.9701830  18.2460760  18.6608360  93.0664530  18.9378600  20.3328620
  92.2716030  18.8723720  20.8621530  93.2707810  19.8729240  20.3213970
  90.0082950  32.9770150  24.3267010  90.6042020  32.6554720  23.6501430
  90.2661100  32.5041970  25.1180280  76.3081150  16.2368460  30.3104450
  75.9595970  16.6932280  31.0762630  75.9768850  15.3425590  30.3926880
  77.9145520  29.4088060  34.4757640  77.8715150  29.0380970  35.3572100
  78.0456530  30.3465630  34.6159460  81.6151550  30.9647650  30.0767360
  81.3742910  31.2322210  29.1897880  82.5554190  31.1353380  30.1318220
  83.8205970  17.4280340  33.8323870  83.7594860  18.0202170  34.5819280
  84.7606350  17.3206300  33.6874130  86.4580530  17.0850400  33.4716160
  87.0720940  17.4029690  32.8097240  87.0030090  16.5998990  34.0912020
  92.8755710  32.9842030  30.8778000  92.3813990  33.3810900  30.1605130
  92.2669000  32.3591240  31.2715280  76.9801790  15.7644660  33.5855220
  77.5284780  15.5832710  32.8221330  77.0457100  14.9738770  34.1211530
  77.7533550  32.3550310  31.5955420  77.1593870  32.2235010  32.3345460
  77.7457390  31.5188450  31.1297520  87.1988570  15.6482540  29.7985450
  86.3248410  15.9817650  29.5958380  87.0899320  15.1755720  30.6237320
  88.1060550  17.8553410  31.1827170  87.7773910  17.0405170  30.8028900
  89.0542850  17.8123220  31.0592860  90.5595160  33.6265450  28.1564740
  90.0998130  34.3781260  27.7822760  89.9307620  32.9071920  28.0979540
  77.3845780  29.7208690  30.5463460  76.6579840  29.1013980  30.4789410
  77.4454930  30.1149300  29.6761540  80.9890880  31.9353690  27.3312870
  81.5055900  31.3241050  26.8061130  81.6388260  32.4382470  27.8223880
  83.7286380  32.8262180  28.1581850  84.0164190  32.5716480  27.2814860
  84.2409600  32.2739540  28.7487420  84.9463390  16.5652380  28.7378360
  84.1635180  17.0397880  29.0175120  84.6526320  15.6607210  28.6291540
  89.4984460  17.2675480  26.7827450  89.9392550  17.2120580  25.9349050
  89.2292050  18.1833490  26.8537630  91.3623030  16.8990720  24.7936270
  91.3011430  15.9551940  24.6467290  92.1415060  17.0070810  25.3389730
  75.6675780  33.0383080  23.7560220  75.4997820  32.4053760  24.4542110
  74.8010290  33.2442480  23.4054410  76.2903800  16.8699860  21.2592080
  77.0483160  16.9828740  20.6856110  75.8280970  17.7069060  21.2135510
  82.8317610  18.9839130  24.2494390  82.0192120  18.6096020  23.9090270
  83.3359250  18.2284210  24.5515580  87.3342590  15.6481580  25.4877460
  87.9371960  16.2201790  25.9625980  86.5935580  16.2121020  25.2651360
  90.4777190  16.0503140  20.7617740  90.6727820  16.9486590  21.0285170
  89.6907060  15.8190220  21.2550690  77.2738480  31.7316310  21.2010360
  76.7486100  32.1124340  20.4972320  77.1983060  32.3567080  21.9220070
  78.6628950  17.3963910  19.7994050  79.1921710  16.6093710  19.6702000
  79.2957270  18.0755100  20.0329580  80.8566790  17.1339050  22.8539440
  80.2269530  16.4326360  23.0209570  80.3171930  17.8943180  22.6372600
  83.7958740  33.7478280  35.5250050  84.7226050  33.5122550  35.5686010
  83.7809170  34.5750280  35.0436080  92.0303800  33.2903850  22.5224300
  92.2055990  32.6041590  21.8785220  91.3325370  33.8150900  22.1300970
  80.9822350  16.4123030  35.2891930  80.7006620  16.9156630  34.5252750
  81.3642050  15.6144780  34.9234060  79.8731450  33.6798690  20.0759610
  80.6050270  33.3957970  19.5283500  80.1325120  33.4411970  20.9658990
  79.0346240  29.7963420  20.0805940  78.4055120  30.2648520  20.6291770
  79.1494070  28.9512640  20.5152130  87.5837810  15.8276610  35.8672400
  87.4703260  16.1471220  36.7623920  88.4007550  16.2289120  35.5709680
  90.3636300  32.9748140  35.3491090  91.1561620  32.4797370  35.1417050
  90.6569450  33.6538280  35.9566700  86.4895960  23.8469080   6.2307140
  86.4090010  22.9323690   5.9598850  86.0760380  24.3436150   5.5246850
  84.6214000  25.6248100   8.1116410  83.8456100  25.1448540   8.4014980
  85.2726930  24.9453750   7.9372570  78.6379830  25.9367910   8.9892170
  77.8064710  25.6816620   9.3888680  79.2460810  26.0078680   9.7250090
  88.6421430  30.0308290   6.8915540  88.1802960  29.2595530   7.2202710
  89.4546980  30.0574360   7.3967990  78.6181090  29.9708000   9.1850190
  78.9209130  29.0805740   9.0060410  79.3624680  30.5278220   8.9572440
  77.0471780  20.8969800   2.7734560  76.1588480  21.2385770   2.6714440
  77.3312970  20.6970120   1.8815390  75.0104790  23.4975450   8.6574260
  75.5820900  22.7297650   8.6577900  75.0106330  23.7964210   7.7480870
  84.8684740  32.3166300   6.5119530  84.2496180  32.7723800   5.9413970
  85.7236520  32.4717760   6.1109230  84.0622990  28.3005290   8.1186570
  83.9931270  27.3595230   7.9575700  84.8242850  28.3906700   8.6909140
  76.2529660  18.9059810  10.4443190  76.0732500  18.0085560  10.7245950
  75.8509740  19.4531680  11.1190140  85.0928160  21.1075670   8.3455500
  85.4692980  20.2347550   8.2329170  84.9947670  21.4434370   7.4545940
  79.2233170  19.4801300   3.8072940  79.3299920  20.3805030   4.1141700
  78.3125530  19.4319270   3.5167590  88.8752280  18.6026110   5.2783840
  89.6961900  18.1122680   5.3209320  88.9086360  19.1923770   6.0315680
  76.8716330  21.4020310   9.0525530  77.5526440  21.6658680   9.6712930
  76.5564380  20.5621180   9.3863540  81.0640900  22.4487670   8.1398120
  81.5719120  22.9468640   8.7803140  81.5954140  21.6722870   7.9637480
  93.1651830  20.6192860  11.8427470  92.4604000  21.0074570  11.3242580
  93.4309750  21.3143150  12.4448400  79.3477000  17.0886230  12.4061540
  79.3495440  17.6058620  11.6007440  78.5181310  16.6116410  12.3831470
  85.7348090  27.2005540   3.9051440  85.1165360  27.6654990   3.3414160
  86.2471340  27.8933020   4.3220950  80.5979850  26.7281410  10.5835040
  80.2649230  27.3550330  11.2256110  80.7746530  27.2543290   9.8036710
  89.1113760  20.5426490   8.0511380  88.4069330  20.8311380   8.6314490
  89.4725920  21.3526600   7.6910940  79.0292330  18.7996190  10.4131990
  79.3709140  19.6438240  10.1185860  78.0908140  18.9479930  10.5297330
  79.8098950  28.6962210  12.3984220  80.4272950  29.3713290  12.1168670
  78.9492070  29.1050190  12.3071720  90.7276540  30.1601620  10.3138860
  90.0440060  30.8300730  10.3055530  91.2670830  30.3582270   9.5483720
  92.1800680  19.9881280   8.4420590  91.2325590  20.0220260   8.5736020
  92.5050670  20.8020230   8.8269950  82.7120220  16.2878460   6.7376580
  83.0195200  15.7325350   6.0212080  81.7820920  16.4222920   6.5549570
  88.2635280  32.0045750   9.0284040  88.2762440  31.6008040   8.1606300
  87.7110500  32.7793040   8.9245470  89.5580700  28.7261970   4.1174210
  89.4477030  27.7836300   4.2423630  89.5548950  29.0877610   5.0036970
  87.6620720  26.9075590  10.3566650  88.0789510  26.6935700   9.5220110
  88.3860540  27.1648380  10.9275270  85.1000980  24.3527290   3.4736700
  84.1730260  24.2864670   3.7025170  85.2525800  25.2907420   3.3591940
  91.6082820  25.3062810  10.4482890  90.7801450  25.3755900   9.9733020
  92.2033300  25.8917120   9.9798720  89.1298270  25.9147590   3.9771950
  88.5110690  25.5767140   3.3298250  89.1122720  25.2707350   4.6851140
  88.5724830  22.0932130  11.3937760  88.1596010  22.9185840  11.6477750
  87.8400780  21.5077170  11.2014120  80.7057620  24.8792030   6.2556430
  80.3014620  24.1669280   5.7602330  80.7920740  24.5345270   7.1444470
  81.1739320  28.5659590   8.4195640  80.8767610  27.9605060   7.7403420
  82.1239140  28.6036900   8.3085000  79.4186240  21.6535240  10.0355470
  79.9700830  21.7630580   9.2608720  79.9329750  22.0272840  10.7510700
  89.2624930  32.1391460  12.0818740  88.7855490  32.9463650  11.8891350
  88.5786720  31.4869790  12.2344950  80.2657750  28.3041280  15.0703440
  79.3686280  28.5281250  15.3176840  80.2910620  28.4276220  14.1214840
  79.0928970  25.1754600  13.6460810  78.9536740  26.0477400  14.0148210
  78.2110330  24.8327410  13.5008750  85.4158350  30.0930470   4.9525940
  85.8554260  30.8354800   4.5381330  85.3545240  30.3357040   5.8764900
  80.8909320  31.1176300  15.8545960  80.8624750  31.5219250  14.9874390
  80.7274290  30.1886660  15.6917560  77.4062250  23.7737010   3.7563080
  77.2859850  24.4999100   3.1444350  77.0963140  23.0039920   3.2790990
  92.8424140  31.9003400  17.1510130  93.3183860  32.3786290  17.8299210
  93.4631300  31.8320890  16.4255630  75.0447620  26.9452150   9.5631720
  75.1228040  27.0800920   8.6187440  75.6589300  26.2368040   9.7559840
  76.2895250  28.6452340   5.9737900  75.8823330  28.7866930   5.1191500
  77.1808260  28.3612500   5.7709110  92.2457390  29.0916250  14.3110140
  92.3720450  28.8528130  13.3927320  92.2878770  28.2600790  14.7832220
  86.1074130  32.7944250  12.8804950  86.6218800  32.7052260  13.6827380
  85.2643210  33.1403950  13.1732860  88.0828530  33.0799590   2.3088950
  87.9229670  32.7902530   3.2070780  87.9175240  32.3039720   1.7734180
  80.5616910  32.8598120   4.0860570  80.3859390  31.9433660   3.8728370
  79.7072650  33.2185410   4.3258370  87.3504590  32.2149860   4.9435440
  87.8061540  31.4339240   5.2574060  87.6897110  32.9256680   5.4876620
  92.0981400  21.1448710  15.2759880  91.4825670  21.6528380  14.7475340
  91.7777820  20.2447040  15.2185820  75.1007140  27.9866320  12.1026180
  75.2638180  27.5171680  11.2845550  75.5659590  27.4789880  12.7675020
  79.8725910  17.1172080   7.1386750  79.4294060  17.8981620   6.8071270
  80.4310900  17.4401970   7.8457690  84.1595720  19.9840600  12.7422070
  83.6975090  20.1923620  13.5542010  83.7573830  19.1699950  12.4392740
  89.1600230  21.2049550  13.8718730  88.3093820  20.9055300  14.1927800
  89.0002020  21.4491560  12.9602550  86.2549940  22.7051300  15.9717520
  86.5803350  21.8715050  15.6319750  87.0430270  23.2279820  16.1195850
  81.9101810  17.6619410   8.9976350  82.2074140  18.5682240   8.9168370
  82.4587370  17.1738190   8.3835920  79.6640130  22.2405650   4.8668000
  79.4381050  22.0242820   5.7714620  78.8832660  22.6734110   4.5213970
  86.8937890  22.2469020   3.4658650  86.2946780  22.9704820   3.2822270
  87.4417500  22.1845800   2.6835100  82.1039340  23.1391230  15.5328270
  82.0082940  22.1985960  15.3828670  82.9471320  23.3606300  15.1376340
  85.5002760  20.8832560   5.4961930  85.8932330  21.2004760   4.6830620
  85.8619610  20.0044440   5.6106450  77.2349880  19.5504900  13.6862050
  76.8413270  20.3980110  13.8934830  76.5468280  18.9131270  13.8770690
  83.8094930  19.6339870  16.7558790  83.1193250  19.4412070  17.3904880
  84.5527230  19.9174510  17.2883090  74.5366930  17.4733360   7.7192130
  74.2479980  18.0436220   8.4317110  75.2812690  16.9937810   8.0823360
  86.0857900  23.4738310   9.5912710  85.3539020  23.9825120   9.9402810
  85.6882240  22.6568290   9.2901490  82.5235290  20.1492510   7.9965200
  82.5271350  19.7082460   7.1469740  83.4186410  20.4709840   8.1037020
  78.3737670  20.0319000   6.9559410  78.0337720  20.5094230   7.7126460
  77.6114990  19.5784120   6.5960510  86.5483810  18.9271990   9.0035650
  86.5656550  19.3780640   9.8477500  86.2999390  18.0277630   9.2169090
  89.9754560  16.3404170  14.8422030  90.3000330  15.6093830  15.3680010
  90.0111070  16.0217810  13.9403020  76.6746120  27.3617750  14.2621990
  76.2900910  26.7211420  14.8604950  76.9858310  28.0653870  14.8316720
  82.8243260  24.2094290   9.7430610  83.1913390  23.7352860  10.4891950
  82.6348320  25.0835860  10.0838950  75.6883750  18.9537980   5.8724080
  75.4030670  18.5893650   6.7102700  75.6262610  18.2218440   5.2587220
  80.6142630  23.2502930  12.0614820  80.3099700  24.1294910  12.2865180
  81.5689090  23.3102720  12.0972260  79.1424420  27.4563920   2.6581670
  78.3686680  26.9161540   2.4980390  79.8719050  26.9370530   2.3199430
  89.9012400  26.4529280   8.4508060  90.6211520  26.9484570   8.0604170
  89.6994220  25.7747170   7.8061930  85.3622340  17.8467240   2.5937450
  84.5486950  17.3480410   2.5182760  85.1684290  18.6865490   2.1773800
  85.2831200  26.5238340  14.3377060  85.2168510  25.6034010  14.0834650
  84.6536340  26.6213780  15.0521700  79.1861820  27.1244300   6.2960480
  79.7040490  26.3212560   6.2417370  78.7345840  27.0623440   7.1377310
  76.6706360  24.0905670  13.2086180  76.3121300  24.7559520  13.7959520
  76.3760920  23.2589220  13.5798800  79.8719480  24.5489910  16.0925730
  79.5719620  24.6947090  15.1953550  80.6430720  23.9895200  15.9999120
  85.2147930  29.3458910  14.0880860  85.2292470  28.4139870  13.8699770
  84.5073030  29.4318670  14.7270630  91.4259140  25.9866250  13.4349440
  90.7007330  26.5795030  13.2378830  91.9534600  25.9789790  12.6362810
  91.3772250  30.3840990   3.0861600  90.7348410  29.7296610   3.3605320
  90.9902910  30.7896080   2.3102270  86.9558730  27.7126420   6.9333290
  87.3082550  27.1154550   6.2734660  86.0721060  27.3870650   7.1041540
  83.0422010  28.4724110   4.3403700  83.7293140  29.0193320   4.7211290
  82.2554430  29.0164840   4.3753310  82.3449220  25.4770140   3.9529060
  82.8012000  26.2875390   4.1789250  81.9937430  25.1593280   4.7847550
  84.6481830  30.9876480  11.1821360  85.2924050  31.1935860  11.8594780
  85.0111270  30.2264880  10.7292210  78.2461000  15.8207790   4.4251580
  78.1175630  15.8125690   5.3736500  77.4223020  16.1590880   4.0742590
  85.9213910  28.9908830   9.8998810  86.5636140  28.2901990  10.0130980
  86.4463260  29.7707270   9.7195700  87.6951530  29.7903730  13.1034870
  88.0307770  30.3770420  13.7812790  86.7751870  29.6596440  13.3332660
  75.2454930  17.5798910  13.8858280  74.5313450  17.7795830  14.4910890
  75.6649970  16.8038480  14.2573080  75.5327520  31.5679170  14.8724810
  75.6418640  30.6273910  14.7320200  74.8808080  31.8333920  14.2238540
  83.5240110  29.8395060  16.2722930  83.2036980  29.1204300  16.8168620
  82.8498470  30.5150130  16.3458990  86.7393710  20.0721220  11.6359730
  87.1074530  19.2516430  11.9639300  85.8791910  20.1323110  12.0515380
  90.1055740  19.0278160   2.4447290  89.4768900  19.1323830   1.7305520
  89.6107660  19.2474940   3.2341170  82.0739770  21.3064110   3.8605170
  81.3655920  21.7750450   4.3018780  82.3584250  20.6486120   4.4950360
  83.6995700  22.7260810  11.8597700  84.1980950  23.2006630  12.5249550
  83.8418650  21.8024330  12.0667730  86.1055200  18.0314770   5.3000960
  85.9822980  18.0500900   4.3510470  87.0539760  18.0793710   5.4199360
  83.1931990  33.2670070   4.5728940  83.4473490  33.2291460   3.6508310
  82.2444470  33.1403400   4.5657190  90.9062560  18.9428770  12.7026090
  90.4036160  19.6834170  13.0419900  91.7219220  19.3312770  12.3862880
  89.1984570  24.1861950   6.1487450  88.2574710  24.2012180   6.3235140
  89.5128640  23.3997910   6.5947750  91.2010150  31.3570800   7.8241710
  91.3257570  32.1801970   8.2965520  92.0675710  31.1461530   7.4765860
  78.6727680  33.4502010   7.4958840  79.4090160  32.9017470   7.7667410
  79.0568600  34.3158020   7.3564830  75.5573160  29.5175580   3.3700350
  74.6312940  29.7596720   3.3605760  76.0229590  30.3449840   3.2485100
  77.6785960  32.6348080  16.6844420  78.4798690  32.9560130  17.0979820
  77.1637780  32.2743660  17.4064330  86.5150590  28.7427950  16.6319830
  85.9088750  28.7659550  15.8915580  86.2104700  28.0110990  17.1687080
  87.9450960  32.4708240  15.2429240  88.8972710  32.3866260  15.1929480
  87.7979180  33.1349950  15.9163030  75.3983770  25.1221540  15.6280470
  75.9022790  24.5428820  16.1996700  74.6591190  25.4061770  16.1656840
  82.4521710  26.5292530  15.1615990  81.6867380  27.0977530  15.0770660
  82.6337670  26.2368740  14.2684220  89.5945060  28.2597860  15.7191010
  90.3354530  28.5973620  15.2158470  88.8317740  28.4289920  15.1660780
  77.4306850  23.2651130  16.5230540  77.4712190  22.9665000  17.4315770
  78.2852350  23.6658740  16.3638060  79.3712660  21.8443230  14.4905030
  78.8409120  21.3534180  13.8628370  80.0400730  22.2727430  13.9562960
  88.2690720  26.3112690  14.2546220  88.6831740  26.4657770  15.1036640
  87.3341720  26.4367910  14.4172000  88.7412890  23.6508850  16.2585370
  89.3233660  22.8961170  16.1705850  88.9174660  24.1816290  15.4816850
  79.8584960  18.8105600  14.5702320  79.7641830  18.1926350  13.8453190
  79.2782350  19.5371890  14.3432230  82.6246400  17.3678840  11.6029710
  82.1763700  17.3903100  10.7575260  81.9911600  16.9697860  12.2000010
  83.0305950  26.2633170  12.2242150  83.4494060  27.1065900  12.0518390
  82.1114580  26.4005210  11.9948930  85.3669850  23.9949350  13.6079990
  85.4866060  23.3990490  14.3474830  86.2263850  24.0319040  13.1881290
  87.7057750  24.5486540  12.1842500  87.1792970  25.0729160  11.5807640
  88.0489090  25.1813930  12.8152230  80.8813370  32.5686180  13.3399880
  80.3434460  33.2932240  13.0208580  81.1347330  32.0916520  12.5497220
  82.1338620  20.5370700  14.8655810  82.7238310  20.2286550  15.5533630
  81.3158860  20.0650450  15.0215710  86.9532050  20.1536510  15.0988830
  86.2647570  19.4918050  15.0338820  87.6738070  19.7074780  15.5437290
  83.7375580  33.8037390  13.5986530  83.6634280  34.7072530  13.9058900
  82.8354420  33.4849290  13.5708600  75.1402870  31.1311980   6.9020150
  75.4705880  30.2633040   6.6698790  75.5693870  31.3370500   7.7325110
  79.7364790  29.4620990   4.5622120  79.4360330  29.3385960   5.4626030
  79.6302280  28.6029580   4.1537850  75.6293080  31.9982570   9.6401780
  75.1924070  32.1783370  10.4725930  76.1970760  32.7557190   9.4983500
  91.2655260  31.4999570  13.9279090  90.6657250  31.5592130  13.1843010
  91.3949160  30.5604550  14.0575940  91.9613170  25.9864870   1.7683000
  92.7232080  26.5561520   1.8742690  91.9767540  25.4192070   2.5391310
  75.4617510  24.5102800   5.9990660  74.8066350  24.2414440   5.3550360
  76.2995460  24.4007280   5.5492640  92.9673140  26.8414970   6.6124930
  93.3381970  26.0582290   6.2060900  93.6075070  27.5304070   6.4342230
  89.9506900  28.2251550  12.0255250  89.1366740  28.6548710  12.2881040
  90.3581100  28.8369960  11.4124300  91.9097680  24.2168230   3.9184950
  91.5341280  23.4496160   3.4866240  91.1800800  24.5990930   4.4059880
  76.4993440  24.8955370  10.5394000  76.8666480  24.8082770  11.4190020
  75.9304260  24.1321920  10.4400860  91.2997300  23.3639750  13.5524470
  91.0683390  23.1352500  12.6522420  91.5601850  24.2839300  13.5069360
  76.0509440  21.8064460  14.4452420  75.1565490  21.7731220  14.7846130
  76.5906990  22.0051250  15.2103670  89.7385370  18.5896180  16.3304170
  90.6155550  18.5979580  16.7138170  89.7506210  17.8527020  15.7196520
  91.1848640  22.4425720   7.2192190  91.7086120  21.9488370   6.5882360
  91.7708060  22.5776080   7.9639760  91.3638360  22.5265590  10.7411740
  90.4141070  22.4929130  10.8556730  91.5451370  23.4365700  10.5061510
  90.6748610  21.6999070   3.1584600  91.1707730  21.4669940   3.9433480
  90.4764680  20.8610910   2.7422240  76.5549150  16.0812790   8.7935640
  77.2025340  15.5310170   8.3530800  76.9750990  16.3355940   9.6151450
  92.1035770  20.3360020   5.6922280  91.9935050  20.1816060   6.6304550
  92.8643360  19.8080960   5.4497690  90.4501490  16.2754150  12.1505280
  91.0873710  16.8888290  12.5164470  90.5976380  16.3114810  11.2054510
  90.0082950  32.9770150   5.5523520  90.6042020  32.6554720   4.8757940
  90.2661100  32.5041970   6.3436790  76.3081150  16.2368460  11.5360960
  75.9595970  16.6932280  12.3019140  75.9768850  15.3425590  11.6183390
  77.9145520  29.4088060  15.7014150  77.8715150  29.0380970  16.5828610
  78.0456530  30.3465630  15.8415970  81.6151550  30.9647650  11.3023870
  81.3742910  31.2322210  10.4154390  82.5554190  31.1353380  11.3574730
  83.8205970  17.4280340  15.0580380  83.7594860  18.0202170  15.8075790
  84.7606350  17.3206300  14.9130640  86.4580530  17.0850400  14.6972670
  87.0720940  17.4029690  14.0353750  87.0030090  16.5998990  15.3168530
  92.8755710  32.9842030  12.1034510  92.3813990  33.3810900  11.3861640
  92.2669000  32.3591240  12.4971790  76.9801790  15.7644660  14.8111730
  77.5284780  15.5832710  14.0477840  77.0457100  14.9738770  15.3468040
  77.7533550  32.3550310  12.8211930  77.1593870  32.2235010  13.5601970
  77.7457390  31.5188450  12.3554030  87.1988570  15.6482540  11.0241960
  86.3248410  15.9817650  10.8214890  87.0899320  15.1755720  11.8493830
  88.1060550  17.8553410  12.4083680  87.7773910  17.0405170  12.0285410
  89.0542850  17.8123220  12.2849370  90.5595160  33.6265450   9.3821250
  90.0998130  34.3781260   9.0079270  89.9307620  32.9071920   9.3236050
  77.3845780  29.7208690  11.7719970  76.6579840  29.1013980  11.7045920
  77.4454930  30.1149300  10.9018050  80.9890880  31.9353690   8.5569380
  81.5055900  31.3241050   8.0317640  81.6388260  32.4382470   9.0480390
  83.7286380  32.8262180   9.3838360  84.0164190  32.5716480   8.5071370
  84.2409600  32.2739540   9.9743930  84.9463390  16.5652380   9.9634870
  84.1635180  17.0397880  10.2431630  84.6526320  15.6607210   9.8548050
  89.4984460  17.2675480   8.0083960  89.9392550  17.2120580   7.1605560
  89.2292050  18.1833490   8.0794140  91.3623030  16.8990720   6.0192780
  91.3011430  15.9551940   5.8723800  92.1415060  17.0070810   6.5646240
  75.6675780  33.0383080   4.9816730  75.4997820  32.4053760   5.6798620
  74.8010290  33.2442480   4.6310920  76.2903800  16.8699860   2.4848590
  77.0483160  16.9828740   1.9112620  75.8280970  17.7069060   2.4392020
  82.8317610  18.9839130   5.4750900  82.0192120  18.6096020   5.1346780
  83.3359250  18.2284210   5.7772090  87.3342590  15.6481580   6.7133970
  87.9371960  16.2201790   7.1882490  86.5935580  16.2121020   6.4907870
  90.4777190  16.0503140   1.9874250  90.6727820  16.9486590   2.2541680
  89.6907060  15.8190220   2.4807200  77.2738480  31.7316310   2.4266870
  76.7486100  32.1124340   1.7228830  77.1983060  32.3567080   3.1476580
  80.8566790  17.1339050   4.0795950  80.2269530  16.4326360   4.2466080
  80.3171930  17.8943180   3.8629110  83.7958740  33.7478280  16.7506560
  84.7226050  33.5122550  16.7942520  83.7809170  34.5750280  16.2692590
  92.0303800  33.2903850   3.7480810  92.2055990  32.6041590   3.1041730
  91.3325370  33.8150900   3.3557480  80.9822350  16.4123030  16.5148440
  80.7006620  16.9156630  15.7509260  81.3642050  15.6144780  16.1490570
  87.5837810  15.8276610  17.0928910  87.4703260  16.1471220  17.9880430
  88.4007550  16.2289120  16.7966190  90.3636300  32.9748140  16.5747600
  91.1561620  32.4797370  16.3673560  90.6569450  33.6538280  17.1823210
  86.4895960   5.0725590  81.3281100  86.4090010   4.1580200  81.0572810
  86.0760380   5.5692660  80.6220810  84.6214000   6.8504610  83.2090370
  83.8456100   6.3705050  83.4988940  85.2726930   6.1710260  83.0346530
  78.6379830   7.1624420  84.0866130  77.8064710   6.9073130  84.4862640
  79.2460810   7.2335190  84.8224050  88.6421430  11.2564800  81.9889500
  88.1802960  10.4852040  82.3176670  89.4546980  11.2830870  82.4941950
  78.6181090  11.1964510  84.2824150  78.9209130  10.3062250  84.1034370
  79.3624680  11.7534730  84.0546400  77.0471780   2.1226310  77.8708520
  76.1588480   2.4642280  77.7688400  77.3312970   1.9226630  76.9789350
  75.0104790   4.7231960  83.7548220  75.5820900   3.9554160  83.7551860
  75.0106330   5.0220720  82.8454830  84.8684740  13.5422810  81.6093490
  84.2496180  13.9980310  81.0387930  85.7236520  13.6974270  81.2083190
  84.0622990   9.5261800  83.2160530  83.9931270   8.5851740  83.0549660
  84.8242850   9.6163210  83.7883100  76.8716330   2.6276820  84.1499490
  77.5526440   2.8915190  84.7686890  76.5564380   1.7877690  84.4837500
  81.0640900   3.6744180  83.2372080  81.5719120   4.1725150  83.8777100
  81.5954140   2.8979380  83.0611440  93.1651830   1.8449370  86.9401430
  92.4604000   2.2331080  86.4216540  93.4309750   2.5399660  87.5422360
  85.7348090   8.4262050  79.0025400  85.1165360   8.8911500  78.4388120
  86.2471340   9.1189530  79.4194910  80.5979850   7.9537920  85.6809000
  80.2649230   8.5806840  86.3230070  80.7746530   8.4799800  84.9010670
  89.1113760   1.7683000  83.1485340  88.4069330   2.0567890  83.7288450
  89.4725920   2.5783110  82.7884900  79.8098950   9.9218720  87.4958180
  80.4272950  10.5969800  87.2142630  78.9492070  10.3306700  87.4045680
  75.1031290   9.1118580  76.3765030  74.7259270   9.6005680  75.6449930
  75.3604360   9.7843860  77.0071560  90.7276540  11.3858130  85.4112820
  90.0440060  12.0557240  85.4029490  91.2670830  11.5838780  84.6457680
  88.2635280  13.2302260  84.1258000  88.2762440  12.8264550  83.2580260
  87.7110500  14.0049550  84.0219430  89.5580700   9.9518480  79.2148170
  89.4477030   9.0092810  79.3397590  89.5548950  10.3134120  80.1010930
  87.6620720   8.1332100  85.4540610  88.0789510   7.9192210  84.6194070
  88.3860540   8.3904890  86.0249230  85.1000980   5.5783800  78.5710660
  84.1730260   5.5121180  78.7999130  85.2525800   6.5163930  78.4565900
  85.0870060   1.8500800  75.5677820  84.1473730   2.0114760  75.6530280
  85.4053320   2.5686480  75.0213810  91.6082820   6.5319320  85.5456850
  90.7801450   6.6012410  85.0706980  92.2033300   7.1173630  85.0772680
  89.1298270   7.1404100  79.0745910  88.5110690   6.8023650  78.4272210
  89.1122720   6.4963860  79.7825100  88.5724830   3.3188640  86.4911720
  88.1596010   4.1442350  86.7451710  87.8400780   2.7333680  86.2988080
  80.7057620   6.1048540  81.3530390  80.3014620   5.3925790  80.8576290
  80.7920740   5.7601780  82.2418430  81.1739320   9.7916100  83.5169600
  80.8767610   9.1861570  82.8377380  82.1239140   9.8293410  83.4058960
  79.4186240   2.8791750  85.1329430  79.9700830   2.9887090  84.3582680
  79.9329750   3.2529350  85.8484660  89.2624930  13.3647970  87.1792700
  88.7855490  14.1720160  86.9865310  88.5786720  12.7126300  87.3318910
  87.3062970   6.3790910  76.0818660  87.7456250   5.5413340  75.9356480
  88.0191390   7.0120310  76.1682800  79.0928970   6.4011110  88.7434770
  78.9536740   7.2733910  89.1122170  78.2110330   6.0583920  88.5982710
  85.4158350  11.3186980  80.0499900  85.8554260  12.0611310  79.6355290
  85.3545240  11.5613550  80.9738860  77.4062250   4.9993520  78.8537040
  77.2859850   5.7255610  78.2418310  77.0963140   4.2296430  78.3764950
  75.0447620   8.1708660  84.6605680  75.1228040   8.3057430  83.7161400
  75.6589300   7.4624550  84.8533800  76.2895250   9.8708850  81.0711860
  75.8823330  10.0123440  80.2165460  77.1808260   9.5869010  80.8683070
  86.1074130  14.0200760  87.9778910  86.6218800  13.9308770  88.7801340
  85.2643210  14.3660460  88.2706820  88.0828530  14.3056100  77.4062910
  87.9229670  14.0159040  78.3044740  87.9175240  13.5296230  76.8708140
  80.5616910  14.0854630  79.1834530  80.3859390  13.1690170  78.9702330
  79.7072650  14.4441920  79.4232330  87.7854660  11.8143660  75.9660910
  87.0919820  11.8120950  75.3063190  88.5277520  11.3902980  75.5355080
  87.3504590  13.4406370  80.0409400  87.8061540  12.6595750  80.3548020
  87.6897110  14.1513190  80.5850580  75.1007140   9.2122830  87.2000140
  75.2638180   8.7428190  86.3819510  75.5659590   8.7046390  87.8648980
  79.6640130   3.4662160  79.9641960  79.4381050   3.2499330  80.8688580
  78.8832660   3.8990620  79.6187930  86.8937890   3.4725530  78.5632610
  86.2946780   4.1961330  78.3796230  87.4417500   3.4102310  77.7809060
  74.7237160   2.6409990  74.0268810  74.6411830   3.5840750  74.1683800
  74.3720220   2.4984900  73.1481160  86.0857900   4.6994820  84.6886670
  85.3539020   5.2081630  85.0376770  85.6882240   3.8824800  84.3875450
  82.5855440   2.3761100  76.0845920  82.7068260   2.3347580  77.0331740
  82.2003950   3.2385250  75.9292650  81.5976940   4.6862240  75.4829220
  81.0293840   4.2380490  74.8565130  82.3065940   5.0455020  74.9494370
  82.8243260   5.4350800  84.8404570  83.1913390   4.9609370  85.5865910
  82.6348320   6.3092370  85.1812910  80.6142630   4.4759440  87.1588780
  80.3099700   5.3551420  87.3839140  81.5689090   4.5359230  87.1946220
  79.1424420   8.6820430  77.7555630  78.3686680   8.1418050  77.5954350
  79.8719050   8.1627040  77.4173390  89.9012400   7.6785790  83.5482020
  90.6211520   8.1741080  83.1578130  89.6994220   7.0003680  82.9035890
  88.0770730   3.4443400  75.9873570  88.9650350   3.7560630  75.8124910
  88.0475820   2.5715650  75.5954150  79.1861820   8.3500810  81.3934440
  79.7040490   7.5469070  81.3391330  78.7345840   8.2879950  82.2351270
  84.0731320   9.6167090  76.6661740  84.4147020  10.3609320  76.1705060
  83.2444030   9.9298210  77.0286570  76.6706360   5.3162180  88.3060140
  76.3121300   5.9816030  88.8933480  76.3760920   4.4845730  88.6772760
  90.3485000   4.7555240  75.4553430  90.2648720   5.1869460  74.6049870
  91.0679190   5.2153590  75.8880250  91.4259140   7.2122760  88.5323400
  90.7007330   7.8051540  88.3352790  91.9534600   7.2046300  87.7336770
  91.3772250  11.6097500  78.1835560  90.7348410  10.9553120  78.4579280
  90.9902910  12.0152590  77.4076230  86.9558730   8.9382930  82.0307250
  87.3082550   8.3411060  81.3708620  86.0721060   8.6127160  82.2015500
  83.0422010   9.6980620  79.4377660  83.7293140  10.2449830  79.8185250
  82.2554430  10.2421350  79.4727270  75.1814410   5.3153440  74.9294740
  76.0509260   5.5978240  75.2130660  74.6904730   6.1289310  74.8143550
  82.3449220   6.7026650  79.0503020  82.8012000   7.5131900  79.2763210
  81.9937430   6.3849790  79.8821510  84.6481830  12.2132990  86.2795320
  85.2924050  12.4192370  86.9568740  85.0111270  11.4521390  85.8266170
  85.9213910  10.2165340  84.9972770  86.5636140   9.5158500  85.1104940
  86.4463260  10.9963780  84.8169660  89.7669630  10.5013960  74.7211910
  89.5407210   9.7844400  75.3136550  89.3765830  10.2526400  73.8833660
  87.6951530  11.0160240  88.2008830  88.0307770  11.6026930  88.8786750
  86.7751870  10.8852950  88.4306620  75.5485660  14.5280820  75.4956370
  75.9083300  15.1270160  74.8413640  75.4078000  15.0740710  76.2691400
  89.3485880   8.4185900  76.3826070  89.0607580   8.8798590  77.1703950
  90.1438050   7.9583670  76.6510290  81.5654280  11.9112020  76.3130040
  81.5564380  12.6441710  75.6974550  80.6452640  11.6643600  76.4057000
  77.1660920   7.1326910  77.0576800  76.5588870   7.8725810  77.0672100
  77.6410270   7.2226270  76.2315000  84.5513880  11.9740260  74.9755230
  84.6525860  11.7704250  74.0457210  83.6515620  11.7198540  75.1803010
  82.0739770   2.5320620  78.9579130  81.3655920   3.0006960  79.3992740
  82.3584250   1.8742630  79.5924320  83.6995700   3.9517320  86.9571660
  84.1980950   4.4263140  87.6223510  83.8418650   3.0280840  87.1641690
  83.1931990  14.4926580  79.6702900  83.4473490  14.4547970  78.7482270
  82.2444470  14.3659910  79.6631150  89.1984570   5.4118460  81.2461410
  88.2574710   5.4268690  81.4209100  89.5128640   4.6254420  81.6921710
  79.1766210   7.0938060  74.8065370  79.9429480   6.9819420  75.3690800
  79.2540900   6.3976030  74.1542140  77.8712970   4.5263130  75.4898260
  77.9516560   3.5790640  75.6015660  78.7632720   4.8570010  75.5958920
  91.2010150  12.5827310  82.9215670  91.3257570  13.4058480  83.3939480
  92.0675710  12.3718040  82.5739820  78.6727680  14.6758520  82.5932800
  79.4090160  14.1273980  82.8641370  79.0568600  15.5414530  82.4538790
  75.5573160  10.7432090  78.4674310  74.6312940  10.9853230  78.4579720
  76.0229590  11.5706350  78.3459060  81.7829990  13.8488830  74.4158370
  82.5758600  14.1377660  73.9640160  81.2634340  13.4181000  73.7370850
  90.8360160  13.0758960  75.8395110  90.5501670  12.6624100  75.0249290
  90.6379710  14.0046670  75.7195630  82.3007390   9.0692240  74.2800720
  82.1958030   8.4544590  75.0062100  82.1331610   8.5458130  73.4963730
  85.5410120   8.1312270  74.8842710  84.9920220   8.5781570  75.5285450
  86.1629380   7.6261520  75.4080380  81.2085240   7.0903190  76.7808010
  81.6301660   6.9243060  77.6239400  81.3336080   6.2803420  76.2863150
  83.7212880   6.1140800  74.0285110  84.2418540   5.3989820  73.6626260
  84.3681280   6.7526670  74.3285620  83.0305950   7.4889680  87.3216110
  83.4494060   8.3322410  87.1492350  82.1114580   7.6261720  87.0922890
  87.7057750   5.7743050  87.2816460  87.1792970   6.2985670  86.6781600
  88.0489090   6.4070440  87.9126190  80.1044140   3.1636420  73.7266170
  79.9033200   2.3003780  74.0879510  79.9336190   3.0769780  72.7887770
  80.8813370  13.7942690  88.4373840  80.3434460  14.5188750  88.1182540
  81.1347330  13.3173030  87.6471180  83.7375580  15.0293900  88.6960490
  83.6634280  15.9329040  89.0032860  82.8354420  14.7105800  88.6682560
  84.2860910  14.1952410  76.3186850  85.1811700  14.5337380  76.3405610
  84.3178540  13.4731820  75.6911130  77.9257070   9.5679460  74.5473850
  78.3631940  10.1109130  75.2031430  78.4104800   8.7426410  74.5570190
  75.1402870  12.3568490  81.9994110  75.4705880  11.4889550  81.7672750
  75.5693870  12.5627010  82.8299070  79.7364790  10.6877500  79.6596080
  79.4360330  10.5642470  80.5599990  79.6302280   9.8286090  79.2511810
  75.6293080  13.2239080  84.7375740  75.1924070  13.4039880  85.5699890
  76.1970760  13.9813700  84.5957460  92.5056710  10.4673900  74.3622760
  91.6749670  10.5350550  74.8329990  92.6828540  11.3578020  74.0589620
  91.9613170   7.2121380  76.8656960  92.7232080   7.7818030  76.9716650
  91.9767540   6.6448580  77.6365270  75.4617510   5.7359310  81.0964620
  74.8066350   5.4670950  80.4524320  76.2995460   5.6263790  80.6466600
  92.9673140   8.0671480  81.7098890  93.3381970   7.2838800  81.3034860
  93.6075070   8.7560580  81.5316190  89.9506900   9.4508060  87.1229210
  89.1366740   9.8805220  87.3855000  90.3581100  10.0626470  86.5098260
  92.0132340   7.5055750  74.0229480  92.2881180   8.4134630  73.8948700
  91.8243080   7.4418280  74.9591470  91.9097680   5.4424740  79.0158910
  91.5341280   4.6752670  78.5840200  91.1800800   5.8247440  79.5033840
  76.4993440   6.1211880  85.6367960  76.8666480   6.0339280  86.5163980
  75.9304260   5.3578430  85.5374820  91.2997300   4.5896260  88.6498430
  91.0683390   4.3609010  87.7496380  91.5601850   5.5095810  88.6043320
  74.6755590   2.9458240  77.0389950  73.7719670   3.2088440  76.8641610
  75.1596210   3.2169410  76.2589910  91.1848640   3.6682230  82.3166150
  91.7086120   3.1744880  81.6856320  91.7708060   3.8032590  83.0613720
  91.3638360   3.7522100  85.8385700  90.4141070   3.7185640  85.9530690
  91.5451370   4.6622210  85.6035470  90.6748610   2.9255580  78.2558560
  91.1707730   2.6926450  79.0407440  90.4764680   2.0867420  77.8396200
  90.0082950  14.2026660  80.6497480  90.6042020  13.8811230  79.9731900
  90.2661100  13.7298480  81.4410750  81.6151550  12.1904160  86.3997830
  81.3742910  12.4578720  85.5128350  82.5554190  12.3609890  86.4548690
  92.8755710  14.2098540  87.2008470  92.3813990  14.6067410  86.4835600
  92.2669000  13.5847750  87.5945750  77.7533550  13.5806820  87.9185890
  77.1593870  13.4491520  88.6575930  77.7457390  12.7444960  87.4527990
  90.5595160  14.8521960  84.4795210  90.0998130  15.6037770  84.1053230
  89.9307620  14.1328430  84.4210010  77.3845780  10.9465200  86.8693930
  76.6579840  10.3270490  86.8019880  77.4454930  11.3405810  85.9992010
  80.9890880  13.1610200  83.6543340  81.5055900  12.5497560  83.1291600
  81.6388260  13.6638980  84.1454350  83.7286380  14.0518690  84.4812320
  84.0164190  13.7972990  83.6045330  84.2409600  13.4996050  85.0717890
  75.6675780  14.2639590  80.0790690  75.4997820  13.6310270  80.7772580
  74.8010290  14.4698990  79.7284880  77.2738480  12.9572820  77.5240830
  76.7486100  13.3380850  76.8202790  77.1983060  13.5823590  78.2450540
  92.0303800  14.5160360  78.8454770  92.2055990  13.8298100  78.2015690
  91.3325370  15.0407410  78.4531440  79.8731450  14.9055200  76.3990080
  80.6050270  14.6214480  75.8513970  80.1325120  14.6668480  77.2889460
  79.0346240  11.0219930  76.4036410  78.4055120  11.4905030  76.9522240
  79.1494070  10.1769150  76.8382600  86.4895960   5.0725590  62.5537610
  86.4090010   4.1580200  62.2829320  86.0760380   5.5692660  61.8477320
  84.6214000   6.8504610  64.4346880  83.8456100   6.3705050  64.7245450
  85.2726930   6.1710260  64.2603040  78.6379830   7.1624420  65.3122640
  77.8064710   6.9073130  65.7119150  79.2460810   7.2335190  66.0480560
  88.6421430  11.2564800  63.2146010  88.1802960  10.4852040  63.5433180
  89.4546980  11.2830870  63.7198460  78.6181090  11.1964510  65.5080660
  78.9209130  10.3062250  65.3290880  79.3624680  11.7534730  65.2802910
  77.0471780   2.1226310  59.0965030  76.1588480   2.4642280  58.9944910
  77.3312970   1.9226630  58.2045860  75.0104790   4.7231960  64.9804730
  75.5820900   3.9554160  64.9808370  75.0106330   5.0220720  64.0711340
  84.8684740  13.5422810  62.8350000  84.2496180  13.9980310  62.2644440
  85.7236520  13.6974270  62.4339700  84.0622990   9.5261800  64.4417040
  83.9931270   8.5851740  64.2806170  84.8242850   9.6163210  65.0139610
  76.8716330   2.6276820  65.3756000  77.5526440   2.8915190  65.9943400
  76.5564380   1.7877690  65.7094010  81.0640900   3.6744180  64.4628590
  81.5719120   4.1725150  65.1033610  81.5954140   2.8979380  64.2867950
  93.1651830   1.8449370  68.1657940  92.4604000   2.2331080  67.6473050
  93.4309750   2.5399660  68.7678870  85.7348090   8.4262050  60.2281910
  85.1165360   8.8911500  59.6644630  86.2471340   9.1189530  60.6451420
  80.5979850   7.9537920  66.9065510  80.2649230   8.5806840  67.5486580
  80.7746530   8.4799800  66.1267180  89.1113760   1.7683000  64.3741850
  88.4069330   2.0567890  64.9544960  89.4725920   2.5783110  64.0141410
  79.8098950   9.9218720  68.7214690  80.4272950  10.5969800  68.4399140
  78.9492070  10.3306700  68.6302190  75.1031290   9.1118580  57.6021540
  74.7259270   9.6005680  56.8706440  75.3604360   9.7843860  58.2328070
  90.7276540  11.3858130  66.6369330  90.0440060  12.0557240  66.6286000
  91.2670830  11.5838780  65.8714190  88.2635280  13.2302260  65.3514510
  88.2762440  12.8264550  64.4836770  87.7110500  14.0049550  65.2475940
  89.5580700   9.9518480  60.4404680  89.4477030   9.0092810  60.5654100
  89.5548950  10.3134120  61.3267440  87.6620720   8.1332100  66.6797120
  88.0789510   7.9192210  65.8450580  88.3860540   8.3904890  67.2505740
  85.1000980   5.5783800  59.7967170  84.1730260   5.5121180  60.0255640
  85.2525800   6.5163930  59.6822410  85.0870060   1.8500800  56.7934330
  84.1473730   2.0114760  56.8786790  85.4053320   2.5686480  56.2470320
  91.6082820   6.5319320  66.7713360  90.7801450   6.6012410  66.2963490
  92.2033300   7.1173630  66.3029190  89.1298270   7.1404100  60.3002420
  88.5110690   6.8023650  59.6528720  89.1122720   6.4963860  61.0081610
  88.5724830   3.3188640  67.7168230  88.1596010   4.1442350  67.9708220
  87.8400780   2.7333680  67.5244590  80.7057620   6.1048540  62.5786900
  80.3014620   5.3925790  62.0832800  80.7920740   5.7601780  63.4674940
  81.1739320   9.7916100  64.7426110  80.8767610   9.1861570  64.0633890
  82.1239140   9.8293410  64.6315470  79.4186240   2.8791750  66.3585940
  79.9700830   2.9887090  65.5839190  79.9329750   3.2529350  67.0741170
  89.2624930  13.3647970  68.4049210  88.7855490  14.1720160  68.2121820
  88.5786720  12.7126300  68.5575420  80.2657750   9.5297790  71.3933910
  79.3686280   9.7537760  71.6407310  80.2910620   9.6532730  70.4445310
  87.3062970   6.3790910  57.3075170  87.7456250   5.5413340  57.1612990
  88.0191390   7.0120310  57.3939310  79.0928970   6.4011110  69.9691280
  78.9536740   7.2733910  70.3378680  78.2110330   6.0583920  69.8239220
  85.4158350  11.3186980  61.2756410  85.8554260  12.0611310  60.8611800
  85.3545240  11.5613550  62.1995370  80.8909320  12.3432810  72.1776430
  80.8624750  12.7475760  71.3104860  80.7274290  11.4143170  72.0148030
  77.4062250   4.9993520  60.0793550  77.2859850   5.7255610  59.4674820
  77.0963140   4.2296430  59.6021460  92.8424140  13.1259910  73.4740600
  93.3183860  13.6042800  74.1529680  93.4631300  13.0577400  72.7486100
  75.0447620   8.1708660  65.8862190  75.1228040   8.3057430  64.9417910
  75.6589300   7.4624550  66.0790310  76.2895250   9.8708850  62.2968370
  75.8823330  10.0123440  61.4421970  77.1808260   9.5869010  62.0939580
  92.2457390  10.3172760  70.6340610  92.3720450  10.0784640  69.7157790
  92.2878770   9.4857300  71.1062690  86.1074130  14.0200760  69.2035420
  86.6218800  13.9308770  70.0057850  85.2643210  14.3660460  69.4963330
  88.0828530  14.3056100  58.6319420  87.9229670  14.0159040  59.5301250
  87.9175240  13.5296230  58.0964650  80.5616910  14.0854630  60.4091040
  80.3859390  13.1690170  60.1958840  79.7072650  14.4441920  60.6488840
  87.7854660  11.8143660  57.1917420  87.0919820  11.8120950  56.5319700
  88.5277520  11.3902980  56.7611590  87.3504590  13.4406370  61.2665910
  87.8061540  12.6595750  61.5804530  87.6897110  14.1513190  61.8107090
  75.1007140   9.2122830  68.4256650  75.2638180   8.7428190  67.6076020
  75.5659590   8.7046390  69.0905490  89.1600230   2.4306060  70.1949200
  88.3093820   2.1311810  70.5158270  89.0002020   2.6748070  69.2833020
  86.2549940   3.9307810  72.2947990  86.5803350   3.0971560  71.9550220
  87.0430270   4.4536330  72.4426320  79.6640130   3.4662160  61.1898470
  79.4381050   3.2499330  62.0945090  78.8832660   3.8990620  60.8444440
  86.8937890   3.4725530  59.7889120  86.2946780   4.1961330  59.6052740
  87.4417500   3.4102310  59.0065570  82.1039340   4.3647740  71.8558740
  82.0082940   3.4242470  71.7059140  82.9471320   4.5862810  71.4606810
  74.7237160   2.6409990  55.2525320  74.6411830   3.5840750  55.3940310
  74.3720220   2.4984900  54.3737670  86.0857900   4.6994820  65.9143180
  85.3539020   5.2081630  66.2633280  85.6882240   3.8824800  65.6131960
  82.5855440   2.3761100  57.3102430  82.7068260   2.3347580  58.2588250
  82.2003950   3.2385250  57.1549160  81.5976940   4.6862240  56.7085730
  81.0293840   4.2380490  56.0821640  82.3065940   5.0455020  56.1750880
  76.6746120   8.5874260  70.5852460  76.2900910   7.9467930  71.1835420
  76.9858310   9.2910380  71.1547190  82.8243260   5.4350800  66.0661080
  83.1913390   4.9609370  66.8122420  82.6348320   6.3092370  66.4069420
  80.6142630   4.4759440  68.3845290  80.3099700   5.3551420  68.6095650
  81.5689090   4.5359230  68.4202730  79.1424420   8.6820430  58.9812140
  78.3686680   8.1418050  58.8210860  79.8719050   8.1627040  58.6429900
  89.9012400   7.6785790  64.7738530  90.6211520   8.1741080  64.3834640
  89.6994220   7.0003680  64.1292400  85.2831200   7.7494850  70.6607530
  85.2168510   6.8290520  70.4065120  84.6536340   7.8470290  71.3752170
  88.0770730   3.4443400  57.2130080  88.9650350   3.7560630  57.0381420
  88.0475820   2.5715650  56.8210660  79.1861820   8.3500810  62.6190950
  79.7040490   7.5469070  62.5647840  78.7345840   8.2879950  63.4607780
  84.0731320   9.6167090  57.8918250  84.4147020  10.3609320  57.3961570
  83.2444030   9.9298210  58.2543080  76.6706360   5.3162180  69.5316650
  76.3121300   5.9816030  70.1189990  76.3760920   4.4845730  69.9029270
  79.8719480   5.7746420  72.4156200  79.5719620   5.9203600  71.5184020
  80.6430720   5.2151710  72.3229590  85.2147930  10.5715420  70.4111330
  85.2292470   9.6396380  70.1930240  84.5073030  10.6575180  71.0501100
  90.3485000   4.7555240  56.6809940  90.2648720   5.1869460  55.8306380
  91.0679190   5.2153590  57.1136760  91.4259140   7.2122760  69.7579910
  90.7007330   7.8051540  69.5609300  91.9534600   7.2046300  68.9593280
  91.3772250  11.6097500  59.4092070  90.7348410  10.9553120  59.6835790
  90.9902910  12.0152590  58.6332740  86.9558730   8.9382930  63.2563760
  87.3082550   8.3411060  62.5965130  86.0721060   8.6127160  63.4272010
  83.0422010   9.6980620  60.6634170  83.7293140  10.2449830  61.0441760
  82.2554430  10.2421350  60.6983780  75.1814410   5.3153440  56.1551250
  76.0509260   5.5978240  56.4387170  74.6904730   6.1289310  56.0400060
  82.3449220   6.7026650  60.2759530  82.8012000   7.5131900  60.5019720
  81.9937430   6.3849790  61.1078020  84.6481830  12.2132990  67.5051830
  85.2924050  12.4192370  68.1825250  85.0111270  11.4521390  67.0522680
  85.9213910  10.2165340  66.2229280  86.5636140   9.5158500  66.3361450
  86.4463260  10.9963780  66.0426170  89.7669630  10.5013960  55.9468420
  89.5407210   9.7844400  56.5393060  89.3765830  10.2526400  55.1090170
  87.6951530  11.0160240  69.4265340  88.0307770  11.6026930  70.1043260
  86.7751870  10.8852950  69.6563130  75.5485660  14.5280820  56.7212880
  75.9083300  15.1270160  56.0670150  75.4078000  15.0740710  57.4947910
  89.3485880   8.4185900  57.6082580  89.0607580   8.8798590  58.3960460
  90.1438050   7.9583670  57.8766800  75.5327520  12.7935680  71.1955280
  75.6418640  11.8530420  71.0550670  74.8808080  13.0590430  70.5469010
  83.5240110  11.0651570  72.5953400  83.2036980  10.3460810  73.1399090
  82.8498470  11.7406640  72.6689460  81.5654280  11.9112020  57.5386550
  81.5564380  12.6441710  56.9231060  80.6452640  11.6643600  57.6313510
  77.1660920   7.1326910  58.2833310  76.5588870   7.8725810  58.2928610
  77.6410270   7.2226270  57.4571510  84.5513880  11.9740260  56.2011740
  84.6525860  11.7704250  55.2713720  83.6515620  11.7198540  56.4059520
  82.0739770   2.5320620  60.1835640  81.3655920   3.0006960  60.6249250
  82.3584250   1.8742630  60.8180830  83.6995700   3.9517320  68.1828170
  84.1980950   4.4263140  68.8480020  83.8418650   3.0280840  68.3898200
  83.1931990  14.4926580  60.8959410  83.4473490  14.4547970  59.9738780
  82.2444470  14.3659910  60.8887660  89.1984570   5.4118460  62.4717920
  88.2574710   5.4268690  62.6465610  89.5128640   4.6254420  62.9178220
  79.1766210   7.0938060  56.0321880  79.9429480   6.9819420  56.5947310
  79.2540900   6.3976030  55.3798650  77.8712970   4.5263130  56.7154770
  77.9516560   3.5790640  56.8272170  78.7632720   4.8570010  56.8215430
  91.2010150  12.5827310  64.1472180  91.3257570  13.4058480  64.6195990
  92.0675710  12.3718040  63.7996330  78.6727680  14.6758520  63.8189310
  79.4090160  14.1273980  64.0897880  79.0568600  15.5414530  63.6795300
  75.5573160  10.7432090  59.6930820  74.6312940  10.9853230  59.6836230
  76.0229590  11.5706350  59.5715570  77.6785960  13.8604590  73.0074890
  78.4798690  14.1816640  73.4210290  77.1637780  13.5000170  73.7294800
  81.7829990  13.8488830  55.6414880  82.5758600  14.1377660  55.1896670
  81.2634340  13.4181000  54.9627360  86.5150590   9.9684460  72.9550300
  85.9088750   9.9916060  72.2146050  86.2104700   9.2367500  73.4917550
  87.9450960  13.6964750  71.5659710  88.8972710  13.6122770  71.5159950
  87.7979180  14.3606460  72.2393500  90.8360160  13.0758960  57.0651620
  90.5501670  12.6624100  56.2505800  90.6379710  14.0046670  56.9452140
  75.3983770   6.3478050  71.9510940  75.9022790   5.7685330  72.5227170
  74.6591190   6.6318280  72.4887310  82.3007390   9.0692240  55.5057230
  82.1958030   8.4544590  56.2318610  82.1331610   8.5458130  54.7220240
  82.4521710   7.7549040  71.4846460  81.6867380   8.3234040  71.4001130
  82.6337670   7.4625250  70.5914690  85.5410120   8.1312270  56.1099220
  84.9920220   8.5781570  56.7541960  86.1629380   7.6261520  56.6336890
  89.5945060   9.4854370  72.0421480  90.3354530   9.8230130  71.5388940
  88.8317740   9.6546430  71.4891250  77.4306850   4.4907640  72.8461010
  77.4712190   4.1921510  73.7546240  78.2852350   4.8915250  72.6868530
  81.2085240   7.0903190  58.0064520  81.6301660   6.9243060  58.8495910
  81.3336080   6.2803420  57.5119660  79.3712660   3.0699740  70.8135500
  78.8409120   2.5790690  70.1858840  80.0400730   3.4983940  70.2793430
  83.7212880   6.1140800  55.2541620  84.2418540   5.3989820  54.8882770
  84.3681280   6.7526670  55.5542130  88.2690720   7.5369200  70.5776690
  88.6831740   7.6914280  71.4267110  87.3341720   7.6624420  70.7402470
  88.7412890   4.8765360  72.5815840  89.3233660   4.1217680  72.4936320
  88.9174660   5.4072800  71.8047320  83.0305950   7.4889680  68.5472620
  83.4494060   8.3322410  68.3748860  82.1114580   7.6261720  68.3179400
  85.3669850   5.2205860  69.9310460  85.4866060   4.6247000  70.6705300
  86.2263850   5.2575550  69.5111760  87.7057750   5.7743050  68.5072970
  87.1792970   6.2985670  67.9038110  88.0489090   6.4070440  69.1382700
  80.1044140   3.1636420  54.9522680  79.9033200   2.3003780  55.3136020
  79.9336190   3.0769780  54.0144280  80.8813370  13.7942690  69.6630350
  80.3434460  14.5188750  69.3439050  81.1347330  13.3173030  68.8727690
  83.7375580  15.0293900  69.9217000  83.6634280  15.9329040  70.2289370
  82.8354420  14.7105800  69.8939070  84.2860910  14.1952410  57.5443360
  85.1811700  14.5337380  57.5662120  84.3178540  13.4731820  56.9167640
  77.9257070   9.5679460  55.7730360  78.3631940  10.1109130  56.4287940
  78.4104800   8.7426410  55.7826700  75.1402870  12.3568490  63.2250620
  75.4705880  11.4889550  62.9929260  75.5693870  12.5627010  64.0555580
  79.7364790  10.6877500  60.8852590  79.4360330  10.5642470  61.7856500
  79.6302280   9.8286090  60.4768320  75.6293080  13.2239080  65.9632250
  75.1924070  13.4039880  66.7956400  76.1970760  13.9813700  65.8213970
  91.2655260  12.7256080  70.2509560  90.6657250  12.7848640  69.5073480
  91.3949160  11.7861060  70.3806410  92.5056710  10.4673900  55.5879270
  91.6749670  10.5350550  56.0586500  92.6828540  11.3578020  55.2846130
  91.9613170   7.2121380  58.0913470  92.7232080   7.7818030  58.1973160
  91.9767540   6.6448580  58.8621780  75.4617510   5.7359310  62.3221130
  74.8066350   5.4670950  61.6780830  76.2995460   5.6263790  61.8723110
  92.9673140   8.0671480  62.9355400  93.3381970   7.2838800  62.5291370
  93.6075070   8.7560580  62.7572700  89.9506900   9.4508060  68.3485720
  89.1366740   9.8805220  68.6111510  90.3581100  10.0626470  67.7354770
  92.0132340   7.5055750  55.2485990  92.2881180   8.4134630  55.1205210
  91.8243080   7.4418280  56.1847980  91.9097680   5.4424740  60.2415420
  91.5341280   4.6752670  59.8096710  91.1800800   5.8247440  60.7290350
  76.4993440   6.1211880  66.8624470  76.8666480   6.0339280  67.7420490
  75.9304260   5.3578430  66.7631330  91.2997300   4.5896260  69.8754940
  91.0683390   4.3609010  68.9752890  91.5601850   5.5095810  69.8299830
  76.0509440   3.0320970  70.7682890  75.1565490   2.9987730  71.1076600
  76.5906990   3.2307760  71.5334140  74.6755590   2.9458240  58.2646460
  73.7719670   3.2088440  58.0898120  75.1596210   3.2169410  57.4846420
  91.1848640   3.6682230  63.5422660  91.7086120   3.1744880  62.9112830
  91.7708060   3.8032590  64.2870230  91.3638360   3.7522100  67.0642210
  90.4141070   3.7185640  67.1787200  91.5451370   4.6622210  66.8291980
  90.6748610   2.9255580  59.4815070  91.1707730   2.6926450  60.2663950
  90.4764680   2.0867420  59.0652710  90.0082950  14.2026660  61.8753990
  90.6042020  13.8811230  61.1988410  90.2661100  13.7298480  62.6667260
  77.9145520  10.6344570  72.0244620  77.8715150  10.2637480  72.9059080
  78.0456530  11.5722140  72.1646440  81.6151550  12.1904160  67.6254340
  81.3742910  12.4578720  66.7384860  82.5554190  12.3609890  67.6805200
  92.8755710  14.2098540  68.4264980  92.3813990  14.6067410  67.7092110
  92.2669000  13.5847750  68.8202260  77.7533550  13.5806820  69.1442400
  77.1593870  13.4491520  69.8832440  77.7457390  12.7444960  68.6784500
  90.5595160  14.8521960  65.7051720  90.0998130  15.6037770  65.3309740
  89.9307620  14.1328430  65.6466520  77.3845780  10.9465200  68.0950440
  76.6579840  10.3270490  68.0276390  77.4454930  11.3405810  67.2248520
  80.9890880  13.1610200  64.8799850  81.5055900  12.5497560  64.3548110
  81.6388260  13.6638980  65.3710860  83.7286380  14.0518690  65.7068830
  84.0164190  13.7972990  64.8301840  84.2409600  13.4996050  66.2974400
  75.6675780  14.2639590  61.3047200  75.4997820  13.6310270  62.0029090
  74.8010290  14.4698990  60.9541390  77.2738480  12.9572820  58.7497340
  76.7486100  13.3380850  58.0459300  77.1983060  13.5823590  59.4707050
  83.7958740  14.9734790  73.0737030  84.7226050  14.7379060  73.1172990
  83.7809170  15.8006790  72.5923060  92.0303800  14.5160360  60.0711280
  92.2055990  13.8298100  59.4272200  91.3325370  15.0407410  59.6787950
  79.8731450  14.9055200  57.6246590  80.6050270  14.6214480  57.0770480
  80.1325120  14.6668480  58.5145970  79.0346240  11.0219930  57.6292920
  78.4055120  11.4905030  58.1778750  79.1494070  10.1769150  58.0639110
  90.3636300  14.2004650  72.8978070  91.1561620  13.7053880  72.6904030
  90.6569450  14.8794790  73.5053680  86.4895960   5.0725590  43.7794120
  86.4090010   4.1580200  43.5085830  86.0760380   5.5692660  43.0733830
  84.6214000   6.8504610  45.6603390  83.8456100   6.3705050  45.9501960
  85.2726930   6.1710260  45.4859550  78.6379830   7.1624420  46.5379150
  77.8064710   6.9073130  46.9375660  79.2460810   7.2335190  47.2737070
  88.6421430  11.2564800  44.4402520  88.1802960  10.4852040  44.7689690
  89.4546980  11.2830870  44.9454970  78.6181090  11.1964510  46.7337170
  78.9209130  10.3062250  46.5547390  79.3624680  11.7534730  46.5059420
  77.0471780   2.1226310  40.3221540  76.1588480   2.4642280  40.2201420
  77.3312970   1.9226630  39.4302370  75.0104790   4.7231960  46.2061240
  75.5820900   3.9554160  46.2064880  75.0106330   5.0220720  45.2967850
  84.8684740  13.5422810  44.0606510  84.2496180  13.9980310  43.4900950
  85.7236520  13.6974270  43.6596210  84.0622990   9.5261800  45.6673550
  83.9931270   8.5851740  45.5062680  84.8242850   9.6163210  46.2396120
  76.8716330   2.6276820  46.6012510  77.5526440   2.8915190  47.2199910
  76.5564380   1.7877690  46.9350520  81.0640900   3.6744180  45.6885100
  81.5719120   4.1725150  46.3290120  81.5954140   2.8979380  45.5124460
  93.1651830   1.8449370  49.3914450  92.4604000   2.2331080  48.8729560
  93.4309750   2.5399660  49.9935380  85.7348090   8.4262050  41.4538420
  85.1165360   8.8911500  40.8901140  86.2471340   9.1189530  41.8707930
  80.5979850   7.9537920  48.1322020  80.2649230   8.5806840  48.7743090
  80.7746530   8.4799800  47.3523690  89.1113760   1.7683000  45.5998360
  88.4069330   2.0567890  46.1801470  89.4725920   2.5783110  45.2397920
  79.8098950   9.9218720  49.9471200  80.4272950  10.5969800  49.6655650
  78.9492070  10.3306700  49.8558700  75.1031290   9.1118580  38.8278050
  74.7259270   9.6005680  38.0962950  75.3604360   9.7843860  39.4584580
  90.7276540  11.3858130  47.8625840  90.0440060  12.0557240  47.8542510
  91.2670830  11.5838780  47.0970700  88.2635280  13.2302260  46.5771020
  88.2762440  12.8264550  45.7093280  87.7110500  14.0049550  46.4732450
  89.5580700   9.9518480  41.6661190  89.4477030   9.0092810  41.7910610
  89.5548950  10.3134120  42.5523950  87.6620720   8.1332100  47.9053630
  88.0789510   7.9192210  47.0707090  88.3860540   8.3904890  48.4762250
  85.1000980   5.5783800  41.0223680  84.1730260   5.5121180  41.2512150
  85.2525800   6.5163930  40.9078920  85.0870060   1.8500800  38.0190840
  84.1473730   2.0114760  38.1043300  85.4053320   2.5686480  37.4726830
  91.6082820   6.5319320  47.9969870  90.7801450   6.6012410  47.5220000
  92.2033300   7.1173630  47.5285700  89.1298270   7.1404100  41.5258930
  88.5110690   6.8023650  40.8785230  89.1122720   6.4963860  42.2338120
  88.5724830   3.3188640  48.9424740  88.1596010   4.1442350  49.1964730
  87.8400780   2.7333680  48.7501100  80.7057620   6.1048540  43.8043410
  80.3014620   5.3925790  43.3089310  80.7920740   5.7601780  44.6931450
  81.1739320   9.7916100  45.9682620  80.8767610   9.1861570  45.2890400
  82.1239140   9.8293410  45.8571980  79.4186240   2.8791750  47.5842450
  79.9700830   2.9887090  46.8095700  79.9329750   3.2529350  48.2997680
  89.2624930  13.3647970  49.6305720  88.7855490  14.1720160  49.4378330
  88.5786720  12.7126300  49.7831930  80.2657750   9.5297790  52.6190420
  79.3686280   9.7537760  52.8663820  80.2910620   9.6532730  51.6701820
  87.3062970   6.3790910  38.5331680  87.7456250   5.5413340  38.3869500
  88.0191390   7.0120310  38.6195820  79.0928970   6.4011110  51.1947790
  78.9536740   7.2733910  51.5635190  78.2110330   6.0583920  51.0495730
  85.4158350  11.3186980  42.5012920  85.8554260  12.0611310  42.0868310
  85.3545240  11.5613550  43.4251880  80.8909320  12.3432810  53.4032940
  80.8624750  12.7475760  52.5361370  80.7274290  11.4143170  53.2404540
  77.4062250   4.9993520  41.3050060  77.2859850   5.7255610  40.6931330
  77.0963140   4.2296430  40.8277970  92.8424140  13.1259910  54.6997110
  93.3183860  13.6042800  55.3786190  93.4631300  13.0577400  53.9742610
  75.0447620   8.1708660  47.1118700  75.1228040   8.3057430  46.1674420
  75.6589300   7.4624550  47.3046820  76.2895250   9.8708850  43.5224880
  75.8823330  10.0123440  42.6678480  77.1808260   9.5869010  43.3196090
  92.2457390  10.3172760  51.8597120  92.3720450  10.0784640  50.9414300
  92.2878770   9.4857300  52.3319200  86.1074130  14.0200760  50.4291930
  86.6218800  13.9308770  51.2314360  85.2643210  14.3660460  50.7219840
  88.0828530  14.3056100  39.8575930  87.9229670  14.0159040  40.7557760
  87.9175240  13.5296230  39.3221160  80.5616910  14.0854630  41.6347550
  80.3859390  13.1690170  41.4215350  79.7072650  14.4441920  41.8745350
  87.7854660  11.8143660  38.4173930  87.0919820  11.8120950  37.7576210
  88.5277520  11.3902980  37.9868100  87.3504590  13.4406370  42.4922420
  87.8061540  12.6595750  42.8061040  87.6897110  14.1513190  43.0363600
  75.1007140   9.2122830  49.6513160  75.2638180   8.7428190  48.8332530
  75.5659590   8.7046390  50.3162000  89.1600230   2.4306060  51.4205710
  88.3093820   2.1311810  51.7414780  89.0002020   2.6748070  50.5089530
  86.2549940   3.9307810  53.5204500  86.5803350   3.0971560  53.1806730
  87.0430270   4.4536330  53.6682830  79.6640130   3.4662160  42.4154980
  79.4381050   3.2499330  43.3201600  78.8832660   3.8990620  42.0700950
  86.8937890   3.4725530  41.0145630  86.2946780   4.1961330  40.8309250
  87.4417500   3.4102310  40.2322080  82.1039340   4.3647740  53.0815250
  82.0082940   3.4242470  52.9315650  82.9471320   4.5862810  52.6863320
  74.7237160   2.6409990  36.4781830  74.6411830   3.5840750  36.6196820
  74.3720220   2.4984900  35.5994180  86.0857900   4.6994820  47.1399690
  85.3539020   5.2081630  47.4889790  85.6882240   3.8824800  46.8388470
  82.5855440   2.3761100  38.5358940  82.7068260   2.3347580  39.4844760
  82.2003950   3.2385250  38.3805670  81.5976940   4.6862240  37.9342240
  81.0293840   4.2380490  37.3078150  82.3065940   5.0455020  37.4007390
  76.6746120   8.5874260  51.8108970  76.2900910   7.9467930  52.4091930
  76.9858310   9.2910380  52.3803700  82.8243260   5.4350800  47.2917590
  83.1913390   4.9609370  48.0378930  82.6348320   6.3092370  47.6325930
  80.6142630   4.4759440  49.6101800  80.3099700   5.3551420  49.8352160
  81.5689090   4.5359230  49.6459240  79.1424420   8.6820430  40.2068650
  78.3686680   8.1418050  40.0467370  79.8719050   8.1627040  39.8686410
  89.9012400   7.6785790  45.9995040  90.6211520   8.1741080  45.6091150
  89.6994220   7.0003680  45.3548910  85.2831200   7.7494850  51.8864040
  85.2168510   6.8290520  51.6321630  84.6536340   7.8470290  52.6008680
  88.0770730   3.4443400  38.4386590  88.9650350   3.7560630  38.2637930
  88.0475820   2.5715650  38.0467170  79.1861820   8.3500810  43.8447460
  79.7040490   7.5469070  43.7904350  78.7345840   8.2879950  44.6864290
  84.0731320   9.6167090  39.1174760  84.4147020  10.3609320  38.6218080
  83.2444030   9.9298210  39.4799590  76.6706360   5.3162180  50.7573160
  76.3121300   5.9816030  51.3446500  76.3760920   4.4845730  51.1285780
  79.8719480   5.7746420  53.6412710  79.5719620   5.9203600  52.7440530
  80.6430720   5.2151710  53.5486100  85.2147930  10.5715420  51.6367840
  85.2292470   9.6396380  51.4186750  84.5073030  10.6575180  52.2757610
  90.3485000   4.7555240  37.9066450  90.2648720   5.1869460  37.0562890
  91.0679190   5.2153590  38.3393270  91.4259140   7.2122760  50.9836420
  90.7007330   7.8051540  50.7865810  91.9534600   7.2046300  50.1849790
  91.3772250  11.6097500  40.6348580  90.7348410  10.9553120  40.9092300
  90.9902910  12.0152590  39.8589250  86.9558730   8.9382930  44.4820270
  87.3082550   8.3411060  43.8221640  86.0721060   8.6127160  44.6528520
  83.0422010   9.6980620  41.8890680  83.7293140  10.2449830  42.2698270
  82.2554430  10.2421350  41.9240290  75.1814410   5.3153440  37.3807760
  76.0509260   5.5978240  37.6643680  74.6904730   6.1289310  37.2656570
  82.3449220   6.7026650  41.5016040  82.8012000   7.5131900  41.7276230
  81.9937430   6.3849790  42.3334530  84.6481830  12.2132990  48.7308340
  85.2924050  12.4192370  49.4081760  85.0111270  11.4521390  48.2779190
  85.9213910  10.2165340  47.4485790  86.5636140   9.5158500  47.5617960
  86.4463260  10.9963780  47.2682680  89.7669630  10.5013960  37.1724930
  89.5407210   9.7844400  37.7649570  89.3765830  10.2526400  36.3346680
  87.6951530  11.0160240  50.6521850  88.0307770  11.6026930  51.3299770
  86.7751870  10.8852950  50.8819640  75.5485660  14.5280820  37.9469390
  75.9083300  15.1270160  37.2926660  75.4078000  15.0740710  38.7204420
  89.3485880   8.4185900  38.8339090  89.0607580   8.8798590  39.6216970
  90.1438050   7.9583670  39.1023310  75.5327520  12.7935680  52.4211790
  75.6418640  11.8530420  52.2807180  74.8808080  13.0590430  51.7725520
  83.5240110  11.0651570  53.8209910  83.2036980  10.3460810  54.3655600
  82.8498470  11.7406640  53.8945970  81.5654280  11.9112020  38.7643060
  81.5564380  12.6441710  38.1487570  80.6452640  11.6643600  38.8570020
  77.1660920   7.1326910  39.5089820  76.5588870   7.8725810  39.5185120
  77.6410270   7.2226270  38.6828020  84.5513880  11.9740260  37.4268250
  84.6525860  11.7704250  36.4970230  83.6515620  11.7198540  37.6316030
  82.0739770   2.5320620  41.4092150  81.3655920   3.0006960  41.8505760
  82.3584250   1.8742630  42.0437340  83.6995700   3.9517320  49.4084680
  84.1980950   4.4263140  50.0736530  83.8418650   3.0280840  49.6154710
  83.1931990  14.4926580  42.1215920  83.4473490  14.4547970  41.1995290
  82.2444470  14.3659910  42.1144170  89.1984570   5.4118460  43.6974430
  88.2574710   5.4268690  43.8722120  89.5128640   4.6254420  44.1434730
  79.1766210   7.0938060  37.2578390  79.9429480   6.9819420  37.8203820
  79.2540900   6.3976030  36.6055160  77.8712970   4.5263130  37.9411280
  77.9516560   3.5790640  38.0528680  78.7632720   4.8570010  38.0471940
  91.2010150  12.5827310  45.3728690  91.3257570  13.4058480  45.8452500
  92.0675710  12.3718040  45.0252840  78.6727680  14.6758520  45.0445820
  79.4090160  14.1273980  45.3154390  79.0568600  15.5414530  44.9051810
  75.5573160  10.7432090  40.9187330  74.6312940  10.9853230  40.9092740
  76.0229590  11.5706350  40.7972080  77.6785960  13.8604590  54.2331400
  78.4798690  14.1816640  54.6466800  77.1637780  13.5000170  54.9551310
  81.7829990  13.8488830  36.8671390  82.5758600  14.1377660  36.4153180
  81.2634340  13.4181000  36.1883870  86.5150590   9.9684460  54.1806810
  85.9088750   9.9916060  53.4402560  86.2104700   9.2367500  54.7174060
  87.9450960  13.6964750  52.7916220  88.8972710  13.6122770  52.7416460
  87.7979180  14.3606460  53.4650010  90.8360160  13.0758960  38.2908130
  90.5501670  12.6624100  37.4762310  90.6379710  14.0046670  38.1708650
  75.3983770   6.3478050  53.1767450  75.9022790   5.7685330  53.7483680
  74.6591190   6.6318280  53.7143820  82.3007390   9.0692240  36.7313740
  82.1958030   8.4544590  37.4575120  82.1331610   8.5458130  35.9476750
  82.4521710   7.7549040  52.7102970  81.6867380   8.3234040  52.6257640
  82.6337670   7.4625250  51.8171200  85.5410120   8.1312270  37.3355730
  84.9920220   8.5781570  37.9798470  86.1629380   7.6261520  37.8593400
  89.5945060   9.4854370  53.2677990  90.3354530   9.8230130  52.7645450
  88.8317740   9.6546430  52.7147760  77.4306850   4.4907640  54.0717520
  77.4712190   4.1921510  54.9802750  78.2852350   4.8915250  53.9125040
  81.2085240   7.0903190  39.2321030  81.6301660   6.9243060  40.0752420
  81.3336080   6.2803420  38.7376170  79.3712660   3.0699740  52.0392010
  78.8409120   2.5790690  51.4115350  80.0400730   3.4983940  51.5049940
  83.7212880   6.1140800  36.4798130  84.2418540   5.3989820  36.1139280
  84.3681280   6.7526670  36.7798640  88.2690720   7.5369200  51.8033200
  88.6831740   7.6914280  52.6523620  87.3341720   7.6624420  51.9658980
  88.7412890   4.8765360  53.8072350  89.3233660   4.1217680  53.7192830
  88.9174660   5.4072800  53.0303830  83.0305950   7.4889680  49.7729130
  83.4494060   8.3322410  49.6005370  82.1114580   7.6261720  49.5435910
  85.3669850   5.2205860  51.1566970  85.4866060   4.6247000  51.8961810
  86.2263850   5.2575550  50.7368270  87.7057750   5.7743050  49.7329480
  87.1792970   6.2985670  49.1294620  88.0489090   6.4070440  50.3639210
  80.1044140   3.1636420  36.1779190  79.9033200   2.3003780  36.5392530
  79.9336190   3.0769780  35.2400790  80.8813370  13.7942690  50.8886860
  80.3434460  14.5188750  50.5695560  81.1347330  13.3173030  50.0984200
  83.7375580  15.0293900  51.1473510  83.6634280  15.9329040  51.4545880
  82.8354420  14.7105800  51.1195580  84.2860910  14.1952410  38.7699870
  85.1811700  14.5337380  38.7918630  84.3178540  13.4731820  38.1424150
  77.9257070   9.5679460  36.9986870  78.3631940  10.1109130  37.6544450
  78.4104800   8.7426410  37.0083210  75.1402870  12.3568490  44.4507130
  75.4705880  11.4889550  44.2185770  75.5693870  12.5627010  45.2812090
  79.7364790  10.6877500  42.1109100  79.4360330  10.5642470  43.0113010
  79.6302280   9.8286090  41.7024830  75.6293080  13.2239080  47.1888760
  75.1924070  13.4039880  48.0212910  76.1970760  13.9813700  47.0470480
  91.2655260  12.7256080  51.4766070  90.6657250  12.7848640  50.7329990
  91.3949160  11.7861060  51.6062920  92.5056710  10.4673900  36.8135780
  91.6749670  10.5350550  37.2843010  92.6828540  11.3578020  36.5102640
  91.9613170   7.2121380  39.3169980  92.7232080   7.7818030  39.4229670
  91.9767540   6.6448580  40.0878290  75.4617510   5.7359310  43.5477640
  74.8066350   5.4670950  42.9037340  76.2995460   5.6263790  43.0979620
  92.9673140   8.0671480  44.1611910  93.3381970   7.2838800  43.7547880
  93.6075070   8.7560580  43.9829210  89.9506900   9.4508060  49.5742230
  89.1366740   9.8805220  49.8368020  90.3581100  10.0626470  48.9611280
  92.0132340   7.5055750  36.4742500  92.2881180   8.4134630  36.3461720
  91.8243080   7.4418280  37.4104490  91.9097680   5.4424740  41.4671930
  91.5341280   4.6752670  41.0353220  91.1800800   5.8247440  41.9546860
  76.4993440   6.1211880  48.0880980  76.8666480   6.0339280  48.9677000
  75.9304260   5.3578430  47.9887840  91.2997300   4.5896260  51.1011450
  91.0683390   4.3609010  50.2009400  91.5601850   5.5095810  51.0556340
  76.0509440   3.0320970  51.9939400  75.1565490   2.9987730  52.3333110
  76.5906990   3.2307760  52.7590650  74.6755590   2.9458240  39.4902970
  73.7719670   3.2088440  39.3154630  75.1596210   3.2169410  38.7102930
  91.1848640   3.6682230  44.7679170  91.7086120   3.1744880  44.1369340
  91.7708060   3.8032590  45.5126740  91.3638360   3.7522100  48.2898720
  90.4141070   3.7185640  48.4043710  91.5451370   4.6622210  48.0548490
  90.6748610   2.9255580  40.7071580  91.1707730   2.6926450  41.4920460
  90.4764680   2.0867420  40.2909220  90.0082950  14.2026660  43.1010500
  90.6042020  13.8811230  42.4244920  90.2661100  13.7298480  43.8923770
  77.9145520  10.6344570  53.2501130  77.8715150  10.2637480  54.1315590
  78.0456530  11.5722140  53.3902950  81.6151550  12.1904160  48.8510850
  81.3742910  12.4578720  47.9641370  82.5554190  12.3609890  48.9061710
  92.8755710  14.2098540  49.6521490  92.3813990  14.6067410  48.9348620
  92.2669000  13.5847750  50.0458770  77.7533550  13.5806820  50.3698910
  77.1593870  13.4491520  51.1088950  77.7457390  12.7444960  49.9041010
  90.5595160  14.8521960  46.9308230  90.0998130  15.6037770  46.5566250
  89.9307620  14.1328430  46.8723030  77.3845780  10.9465200  49.3206950
  76.6579840  10.3270490  49.2532900  77.4454930  11.3405810  48.4505030
  80.9890880  13.1610200  46.1056360  81.5055900  12.5497560  45.5804620
  81.6388260  13.6638980  46.5967370  83.7286380  14.0518690  46.9325340
  84.0164190  13.7972990  46.0558350  84.2409600  13.4996050  47.5230910
  75.6675780  14.2639590  42.5303710  75.4997820  13.6310270  43.2285600
  74.8010290  14.4698990  42.1797900  77.2738480  12.9572820  39.9753850
  76.7486100  13.3380850  39.2715810  77.1983060  13.5823590  40.6963560
  83.7958740  14.9734790  54.2993540  84.7226050  14.7379060  54.3429500
  83.7809170  15.8006790  53.8179570  92.0303800  14.5160360  41.2967790
  92.2055990  13.8298100  40.6528710  91.3325370  15.0407410  40.9044460
  79.8731450  14.9055200  38.8503100  80.6050270  14.6214480  38.3026990
  80.1325120  14.6668480  39.7402480  79.0346240  11.0219930  38.8549430
  78.4055120  11.4905030  39.4035260  79.1494070  10.1769150  39.2895620
  90.3636300  14.2004650  54.1234580  91.1561620  13.7053880  53.9160540
  90.6569450  14.8794790  54.7310190  86.4895960   5.0725590  25.0050630
  86.4090010   4.1580200  24.7342340  86.0760380   5.5692660  24.2990340
  84.6214000   6.8504610  26.8859900  83.8456100   6.3705050  27.1758470
  85.2726930   6.1710260  26.7116060  78.6379830   7.1624420  27.7635660
  77.8064710   6.9073130  28.1632170  79.2460810   7.2335190  28.4993580
  88.6421430  11.2564800  25.6659030  88.1802960  10.4852040  25.9946200
  89.4546980  11.2830870  26.1711480  78.6181090  11.1964510  27.9593680
  78.9209130  10.3062250  27.7803900  79.3624680  11.7534730  27.7315930
  77.0471780   2.1226310  21.5478050  76.1588480   2.4642280  21.4457930
  77.3312970   1.9226630  20.6558880  75.0104790   4.7231960  27.4317750
  75.5820900   3.9554160  27.4321390  75.0106330   5.0220720  26.5224360
  84.8684740  13.5422810  25.2863020  84.2496180  13.9980310  24.7157460
  85.7236520  13.6974270  24.8852720  84.0622990   9.5261800  26.8930060
  83.9931270   8.5851740  26.7319190  84.8242850   9.6163210  27.4652630
  76.8716330   2.6276820  27.8269020  77.5526440   2.8915190  28.4456420
  76.5564380   1.7877690  28.1607030  81.0640900   3.6744180  26.9141610
  81.5719120   4.1725150  27.5546630  81.5954140   2.8979380  26.7380970
  93.1651830   1.8449370  30.6170960  92.4604000   2.2331080  30.0986070
  93.4309750   2.5399660  31.2191890  85.7348090   8.4262050  22.6794930
  85.1165360   8.8911500  22.1157650  86.2471340   9.1189530  23.0964440
  80.5979850   7.9537920  29.3578530  80.2649230   8.5806840  29.9999600
  80.7746530   8.4799800  28.5780200  89.1113760   1.7683000  26.8254870
  88.4069330   2.0567890  27.4057980  89.4725920   2.5783110  26.4654430
  79.8098950   9.9218720  31.1727710  80.4272950  10.5969800  30.8912160
  78.9492070  10.3306700  31.0815210  75.1031290   9.1118580  20.0534560
  74.7259270   9.6005680  19.3219460  75.3604360   9.7843860  20.6841090
  90.7276540  11.3858130  29.0882350  90.0440060  12.0557240  29.0799020
  91.2670830  11.5838780  28.3227210  88.2635280  13.2302260  27.8027530
  88.2762440  12.8264550  26.9349790  87.7110500  14.0049550  27.6988960
  89.5580700   9.9518480  22.8917700  89.4477030   9.0092810  23.0167120
  89.5548950  10.3134120  23.7780460  87.6620720   8.1332100  29.1310140
  88.0789510   7.9192210  28.2963600  88.3860540   8.3904890  29.7018760
  85.1000980   5.5783800  22.2480190  84.1730260   5.5121180  22.4768660
  85.2525800   6.5163930  22.1335430  85.0870060   1.8500800  19.2447350
  84.1473730   2.0114760  19.3299810  85.4053320   2.5686480  18.6983340
  91.6082820   6.5319320  29.2226380  90.7801450   6.6012410  28.7476510
  92.2033300   7.1173630  28.7542210  89.1298270   7.1404100  22.7515440
  88.5110690   6.8023650  22.1041740  89.1122720   6.4963860  23.4594630
  88.5724830   3.3188640  30.1681250  88.1596010   4.1442350  30.4221240
  87.8400780   2.7333680  29.9757610  80.7057620   6.1048540  25.0299920
  80.3014620   5.3925790  24.5345820  80.7920740   5.7601780  25.9187960
  81.1739320   9.7916100  27.1939130  80.8767610   9.1861570  26.5146910
  82.1239140   9.8293410  27.0828490  79.4186240   2.8791750  28.8098960
  79.9700830   2.9887090  28.0352210  79.9329750   3.2529350  29.5254190
  89.2624930  13.3647970  30.8562230  88.7855490  14.1720160  30.6634840
  88.5786720  12.7126300  31.0088440  80.2657750   9.5297790  33.8446930
  79.3686280   9.7537760  34.0920330  80.2910620   9.6532730  32.8958330
  87.3062970   6.3790910  19.7588190  87.7456250   5.5413340  19.6126010
  88.0191390   7.0120310  19.8452330  79.0928970   6.4011110  32.4204300
  78.9536740   7.2733910  32.7891700  78.2110330   6.0583920  32.2752240
  85.4158350  11.3186980  23.7269430  85.8554260  12.0611310  23.3124820
  85.3545240  11.5613550  24.6508390  80.8909320  12.3432810  34.6289450
  80.8624750  12.7475760  33.7617880  80.7274290  11.4143170  34.4661050
  77.4062250   4.9993520  22.5306570  77.2859850   5.7255610  21.9187840
  77.0963140   4.2296430  22.0534480  92.8424140  13.1259910  35.9253620
  93.3183860  13.6042800  36.6042700  93.4631300  13.0577400  35.1999120
  75.0447620   8.1708660  28.3375210  75.1228040   8.3057430  27.3930930
  75.6589300   7.4624550  28.5303330  76.2895250   9.8708850  24.7481390
  75.8823330  10.0123440  23.8934990  77.1808260   9.5869010  24.5452600
  92.2457390  10.3172760  33.0853630  92.3720450  10.0784640  32.1670810
  92.2878770   9.4857300  33.5575710  86.1074130  14.0200760  31.6548440
  86.6218800  13.9308770  32.4570870  85.2643210  14.3660460  31.9476350
  88.0828530  14.3056100  21.0832440  87.9229670  14.0159040  21.9814270
  87.9175240  13.5296230  20.5477670  80.5616910  14.0854630  22.8604060
  80.3859390  13.1690170  22.6471860  79.7072650  14.4441920  23.1001860
  87.7854660  11.8143660  19.6430440  87.0919820  11.8120950  18.9832720
  88.5277520  11.3902980  19.2124610  87.3504590  13.4406370  23.7178930
  87.8061540  12.6595750  24.0317550  87.6897110  14.1513190  24.2620110
  75.1007140   9.2122830  30.8769670  75.2638180   8.7428190  30.0589040
  75.5659590   8.7046390  31.5418510  89.1600230   2.4306060  32.6462220
  88.3093820   2.1311810  32.9671290  89.0002020   2.6748070  31.7346040
  86.2549940   3.9307810  34.7461010  86.5803350   3.0971560  34.4063240
  87.0430270   4.4536330  34.8939340  79.6640130   3.4662160  23.6411490
  79.4381050   3.2499330  24.5458110  78.8832660   3.8990620  23.2957460
  86.8937890   3.4725530  22.2402140  86.2946780   4.1961330  22.0565760
  87.4417500   3.4102310  21.4578590  82.1039340   4.3647740  34.3071760
  82.0082940   3.4242470  34.1572160  82.9471320   4.5862810  33.9119830
  74.7237160   2.6409990  17.7038340  74.6411830   3.5840750  17.8453330
  74.3720220   2.4984900  16.8250690  86.0857900   4.6994820  28.3656200
  85.3539020   5.2081630  28.7146300  85.6882240   3.8824800  28.0644980
  82.5855440   2.3761100  19.7615450  82.7068260   2.3347580  20.7101270
  82.2003950   3.2385250  19.6062180  81.5976940   4.6862240  19.1598750
  81.0293840   4.2380490  18.5334660  82.3065940   5.0455020  18.6263900
  76.6746120   8.5874260  33.0365480  76.2900910   7.9467930  33.6348440
  76.9858310   9.2910380  33.6060210  82.8243260   5.4350800  28.5174100
  83.1913390   4.9609370  29.2635440  82.6348320   6.3092370  28.8582440
  80.6142630   4.4759440  30.8358310  80.3099700   5.3551420  31.0608670
  81.5689090   4.5359230  30.8715750  79.1424420   8.6820430  21.4325160
  78.3686680   8.1418050  21.2723880  79.8719050   8.1627040  21.0942920
  89.9012400   7.6785790  27.2251550  90.6211520   8.1741080  26.8347660
  89.6994220   7.0003680  26.5805420  85.2831200   7.7494850  33.1120550
  85.2168510   6.8290520  32.8578140  84.6536340   7.8470290  33.8265190
  88.0770730   3.4443400  19.6643100  88.9650350   3.7560630  19.4894440
  88.0475820   2.5715650  19.2723680  79.1861820   8.3500810  25.0703970
  79.7040490   7.5469070  25.0160860  78.7345840   8.2879950  25.9120800
  84.0731320   9.6167090  20.3431270  84.4147020  10.3609320  19.8474590
  83.2444030   9.9298210  20.7056100  76.6706360   5.3162180  31.9829670
  76.3121300   5.9816030  32.5703010  76.3760920   4.4845730  32.3542290
  79.8719480   5.7746420  34.8669220  79.5719620   5.9203600  33.9697040
  80.6430720   5.2151710  34.7742610  85.2147930  10.5715420  32.8624350
  85.2292470   9.6396380  32.6443260  84.5073030  10.6575180  33.5014120
  90.3485000   4.7555240  19.1322960  90.2648720   5.1869460  18.2819400
  91.0679190   5.2153590  19.5649780  91.4259140   7.2122760  32.2092930
  90.7007330   7.8051540  32.0122320  91.9534600   7.2046300  31.4106300
  91.3772250  11.6097500  21.8605090  90.7348410  10.9553120  22.1348810
  90.9902910  12.0152590  21.0845760  86.9558730   8.9382930  25.7076780
  87.3082550   8.3411060  25.0478150  86.0721060   8.6127160  25.8785030
  83.0422010   9.6980620  23.1147190  83.7293140  10.2449830  23.4954780
  82.2554430  10.2421350  23.1496800  75.1814410   5.3153440  18.6064270
  76.0509260   5.5978240  18.8900190  74.6904730   6.1289310  18.4913080
  82.3449220   6.7026650  22.7272550  82.8012000   7.5131900  22.9532740
  81.9937430   6.3849790  23.5591040  84.6481830  12.2132990  29.9564850
  85.2924050  12.4192370  30.6338270  85.0111270  11.4521390  29.5035700
  85.9213910  10.2165340  28.6742300  86.5636140   9.5158500  28.7874470
  86.4463260  10.9963780  28.4939190  89.7669630  10.5013960  18.3981440
  89.5407210   9.7844400  18.9906080  89.3765830  10.2526400  17.5603190
  87.6951530  11.0160240  31.8778360  88.0307770  11.6026930  32.5556280
  86.7751870  10.8852950  32.1076150  75.5485660  14.5280820  19.1725900
  75.9083300  15.1270160  18.5183170  75.4078000  15.0740710  19.9460930
  89.3485880   8.4185900  20.0595600  89.0607580   8.8798590  20.8473480
  90.1438050   7.9583670  20.3279820  75.5327520  12.7935680  33.6468300
  75.6418640  11.8530420  33.5063690  74.8808080  13.0590430  32.9982030
  83.5240110  11.0651570  35.0466420  83.2036980  10.3460810  35.5912110
  82.8498470  11.7406640  35.1202480  81.5654280  11.9112020  19.9899570
  81.5564380  12.6441710  19.3744080  80.6452640  11.6643600  20.0826530
  77.1660920   7.1326910  20.7346330  76.5588870   7.8725810  20.7441630
  77.6410270   7.2226270  19.9084530  84.5513880  11.9740260  18.6524760
  84.6525860  11.7704250  17.7226740  83.6515620  11.7198540  18.8572540
  82.0739770   2.5320620  22.6348660  81.3655920   3.0006960  23.0762270
  82.3584250   1.8742630  23.2693850  83.6995700   3.9517320  30.6341190
  84.1980950   4.4263140  31.2993040  83.8418650   3.0280840  30.8411220
  83.1931990  14.4926580  23.3472430  83.4473490  14.4547970  22.4251800
  82.2444470  14.3659910  23.3400680  89.1984570   5.4118460  24.9230940
  88.2574710   5.4268690  25.0978630  89.5128640   4.6254420  25.3691240
  79.1766210   7.0938060  18.4834900  79.9429480   6.9819420  19.0460330
  79.2540900   6.3976030  17.8311670  77.8712970   4.5263130  19.1667790
  77.9516560   3.5790640  19.2785190  78.7632720   4.8570010  19.2728450
  91.2010150  12.5827310  26.5985200  91.3257570  13.4058480  27.0709010
  92.0675710  12.3718040  26.2509350  78.6727680  14.6758520  26.2702330
  79.4090160  14.1273980  26.5410900  79.0568600  15.5414530  26.1308320
  75.5573160  10.7432090  22.1443840  74.6312940  10.9853230  22.1349250
  76.0229590  11.5706350  22.0228590  77.6785960  13.8604590  35.4587910
  78.4798690  14.1816640  35.8723310  77.1637780  13.5000170  36.1807820
  81.7829990  13.8488830  18.0927900  82.5758600  14.1377660  17.6409690
  81.2634340  13.4181000  17.4140380  86.5150590   9.9684460  35.4063320
  85.9088750   9.9916060  34.6659070  86.2104700   9.2367500  35.9430570
  87.9450960  13.6964750  34.0172730  88.8972710  13.6122770  33.9672970
  87.7979180  14.3606460  34.6906520  90.8360160  13.0758960  19.5164640
  90.5501670  12.6624100  18.7018820  90.6379710  14.0046670  19.3965160
  75.3983770   6.3478050  34.4023960  75.9022790   5.7685330  34.9740190
  74.6591190   6.6318280  34.9400330  82.3007390   9.0692240  17.9570250
  82.1958030   8.4544590  18.6831630  82.1331610   8.5458130  17.1733260
  82.4521710   7.7549040  33.9359480  81.6867380   8.3234040  33.8514150
  82.6337670   7.4625250  33.0427710  85.5410120   8.1312270  18.5612240
  84.9920220   8.5781570  19.2054980  86.1629380   7.6261520  19.0849910
  89.5945060   9.4854370  34.4934500  90.3354530   9.8230130  33.9901960
  88.8317740   9.6546430  33.9404270  77.4306850   4.4907640  35.2974030
  77.4712190   4.1921510  36.2059260  78.2852350   4.8915250  35.1381550
  81.2085240   7.0903190  20.4577540  81.6301660   6.9243060  21.3008930
  81.3336080   6.2803420  19.9632680  79.3712660   3.0699740  33.2648520
  78.8409120   2.5790690  32.6371860  80.0400730   3.4983940  32.7306450
  83.7212880   6.1140800  17.7054640  84.2418540   5.3989820  17.3395790
  84.3681280   6.7526670  18.0055150  88.2690720   7.5369200  33.0289710
  88.6831740   7.6914280  33.8780130  87.3341720   7.6624420  33.1915490
  88.7412890   4.8765360  35.0328860  89.3233660   4.1217680  34.9449340
  88.9174660   5.4072800  34.2560340  83.0305950   7.4889680  30.9985640
  83.4494060   8.3322410  30.8261880  82.1114580   7.6261720  30.7692420
  85.3669850   5.2205860  32.3823480  85.4866060   4.6247000  33.1218320
  86.2263850   5.2575550  31.9624780  87.7057750   5.7743050  30.9585990
  87.1792970   6.2985670  30.3551130  88.0489090   6.4070440  31.5895720
  80.1044140   3.1636420  17.4035700  79.9033200   2.3003780  17.7649040
  79.9336190   3.0769780  16.4657300  80.8813370  13.7942690  32.1143370
  80.3434460  14.5188750  31.7952070  81.1347330  13.3173030  31.3240710
  83.7375580  15.0293900  32.3730020  83.6634280  15.9329040  32.6802390
  82.8354420  14.7105800  32.3452090  84.2860910  14.1952410  19.9956380
  85.1811700  14.5337380  20.0175140  84.3178540  13.4731820  19.3680660
  77.9257070   9.5679460  18.2243380  78.3631940  10.1109130  18.8800960
  78.4104800   8.7426410  18.2339720  75.1402870  12.3568490  25.6763640
  75.4705880  11.4889550  25.4442280  75.5693870  12.5627010  26.5068600
  79.7364790  10.6877500  23.3365610  79.4360330  10.5642470  24.2369520
  79.6302280   9.8286090  22.9281340  75.6293080  13.2239080  28.4145270
  75.1924070  13.4039880  29.2469420  76.1970760  13.9813700  28.2726990
  91.2655260  12.7256080  32.7022580  90.6657250  12.7848640  31.9586500
  91.3949160  11.7861060  32.8319430  92.5056710  10.4673900  18.0392290
  91.6749670  10.5350550  18.5099520  92.6828540  11.3578020  17.7359150
  91.9613170   7.2121380  20.5426490  92.7232080   7.7818030  20.6486180
  91.9767540   6.6448580  21.3134800  75.4617510   5.7359310  24.7734150
  74.8066350   5.4670950  24.1293850  76.2995460   5.6263790  24.3236130
  92.9673140   8.0671480  25.3868420  93.3381970   7.2838800  24.9804390
  93.6075070   8.7560580  25.2085720  89.9506900   9.4508060  30.7998740
  89.1366740   9.8805220  31.0624530  90.3581100  10.0626470  30.1867790
  92.0132340   7.5055750  17.6999010  92.2881180   8.4134630  17.5718230
  91.8243080   7.4418280  18.6361000  91.9097680   5.4424740  22.6928440
  91.5341280   4.6752670  22.2609730  91.1800800   5.8247440  23.1803370
  76.4993440   6.1211880  29.3137490  76.8666480   6.0339280  30.1933510
  75.9304260   5.3578430  29.2144350  91.2997300   4.5896260  32.3267960
  91.0683390   4.3609010  31.4265910  91.5601850   5.5095810  32.2812850
  76.0509440   3.0320970  33.2195910  75.1565490   2.9987730  33.5589620
  76.5906990   3.2307760  33.9847160  74.6755590   2.9458240  20.7159480
  73.7719670   3.2088440  20.5411140  75.1596210   3.2169410  19.9359440
  91.1848640   3.6682230  25.9935680  91.7086120   3.1744880  25.3625850
  91.7708060   3.8032590  26.7383250  91.3638360   3.7522100  29.5155230
  90.4141070   3.7185640  29.6300220  91.5451370   4.6622210  29.2805000
  90.6748610   2.9255580  21.9328090  91.1707730   2.6926450  22.7176970
  90.4764680   2.0867420  21.5165730  90.0082950  14.2026660  24.3267010
  90.6042020  13.8811230  23.6501430  90.2661100  13.7298480  25.1180280
  77.9145520  10.6344570  34.4757640  77.8715150  10.2637480  35.3572100
  78.0456530  11.5722140  34.6159460  81.6151550  12.1904160  30.0767360
  81.3742910  12.4578720  29.1897880  82.5554190  12.3609890  30.1318220
  92.8755710  14.2098540  30.8778000  92.3813990  14.6067410  30.1605130
  92.2669000  13.5847750  31.2715280  77.7533550  13.5806820  31.5955420
  77.1593870  13.4491520  32.3345460  77.7457390  12.7444960  31.1297520
  90.5595160  14.8521960  28.1564740  90.0998130  15.6037770  27.7822760
  89.9307620  14.1328430  28.0979540  77.3845780  10.9465200  30.5463460
  76.6579840  10.3270490  30.4789410  77.4454930  11.3405810  29.6761540
  80.9890880  13.1610200  27.3312870  81.5055900  12.5497560  26.8061130
  81.6388260  13.6638980  27.8223880  83.7286380  14.0518690  28.1581850
  84.0164190  13.7972990  27.2814860  84.2409600  13.4996050  28.7487420
  75.6675780  14.2639590  23.7560220  75.4997820  13.6310270  24.4542110
  74.8010290  14.4698990  23.4054410  77.2738480  12.9572820  21.2010360
  76.7486100  13.3380850  20.4972320  77.1983060  13.5823590  21.9220070
  83.7958740  14.9734790  35.5250050  84.7226050  14.7379060  35.5686010
  83.7809170  15.8006790  35.0436080  92.0303800  14.5160360  22.5224300
  92.2055990  13.8298100  21.8785220  91.3325370  15.0407410  22.1300970
  79.8731450  14.9055200  20.0759610  80.6050270  14.6214480  19.5283500
  80.1325120  14.6668480  20.9658990  79.0346240  11.0219930  20.0805940
  78.4055120  11.4905030  20.6291770  79.1494070  10.1769150  20.5152130
  90.3636300  14.2004650  35.3491090  91.1561620  13.7053880  35.1417050
  90.6569450  14.8794790  35.9566700  86.4895960   5.0725590   6.2307140
  86.4090010   4.1580200   5.9598850  86.0760380   5.5692660   5.5246850
  84.6214000   6.8504610   8.1116410  83.8456100   6.3705050   8.4014980
  85.2726930   6.1710260   7.9372570  78.6379830   7.1624420   8.9892170
  77.8064710   6.9073130   9.3888680  79.2460810   7.2335190   9.7250090
  88.6421430  11.2564800   6.8915540  88.1802960  10.4852040   7.2202710
  89.4546980  11.2830870   7.3967990  78.6181090  11.1964510   9.1850190
  78.9209130  10.3062250   9.0060410  79.3624680  11.7534730   8.9572440
  77.0471780   2.1226310   2.7734560  76.1588480   2.4642280   2.6714440
  77.3312970   1.9226630   1.8815390  75.0104790   4.7231960   8.6574260
  75.5820900   3.9554160   8.6577900  75.0106330   5.0220720   7.7480870
  84.8684740  13.5422810   6.5119530  84.2496180  13.9980310   5.9413970
  85.7236520  13.6974270   6.1109230  84.0622990   9.5261800   8.1186570
  83.9931270   8.5851740   7.9575700  84.8242850   9.6163210   8.6909140
  76.8716330   2.6276820   9.0525530  77.5526440   2.8915190   9.6712930
  76.5564380   1.7877690   9.3863540  81.0640900   3.6744180   8.1398120
  81.5719120   4.1725150   8.7803140  81.5954140   2.8979380   7.9637480
  93.1651830   1.8449370  11.8427470  92.4604000   2.2331080  11.3242580
  93.4309750   2.5399660  12.4448400  85.7348090   8.4262050   3.9051440
  85.1165360   8.8911500   3.3414160  86.2471340   9.1189530   4.3220950
  80.5979850   7.9537920  10.5835040  80.2649230   8.5806840  11.2256110
  80.7746530   8.4799800   9.8036710  89.1113760   1.7683000   8.0511380
  88.4069330   2.0567890   8.6314490  89.4725920   2.5783110   7.6910940
  79.8098950   9.9218720  12.3984220  80.4272950  10.5969800  12.1168670
  78.9492070  10.3306700  12.3071720  90.7276540  11.3858130  10.3138860
  90.0440060  12.0557240  10.3055530  91.2670830  11.5838780   9.5483720
  88.2635280  13.2302260   9.0284040  88.2762440  12.8264550   8.1606300
  87.7110500  14.0049550   8.9245470  89.5580700   9.9518480   4.1174210
  89.4477030   9.0092810   4.2423630  89.5548950  10.3134120   5.0036970
  87.6620720   8.1332100  10.3566650  88.0789510   7.9192210   9.5220110
  88.3860540   8.3904890  10.9275270  85.1000980   5.5783800   3.4736700
  84.1730260   5.5121180   3.7025170  85.2525800   6.5163930   3.3591940
  91.6082820   6.5319320  10.4482890  90.7801450   6.6012410   9.9733020
  92.2033300   7.1173630   9.9798720  89.1298270   7.1404100   3.9771950
  88.5110690   6.8023650   3.3298250  89.1122720   6.4963860   4.6851140
  88.5724830   3.3188640  11.3937760  88.1596010   4.1442350  11.6477750
  87.8400780   2.7333680  11.2014120  80.7057620   6.1048540   6.2556430
  80.3014620   5.3925790   5.7602330  80.7920740   5.7601780   7.1444470
  81.1739320   9.7916100   8.4195640  80.8767610   9.1861570   7.7403420
  82.1239140   9.8293410   8.3085000  79.4186240   2.8791750  10.0355470
  79.9700830   2.9887090   9.2608720  79.9329750   3.2529350  10.7510700
  89.2624930  13.3647970  12.0818740  88.7855490  14.1720160  11.8891350
  88.5786720  12.7126300  12.2344950  80.2657750   9.5297790  15.0703440
  79.3686280   9.7537760  15.3176840  80.2910620   9.6532730  14.1214840
  79.0928970   6.4011110  13.6460810  78.9536740   7.2733910  14.0148210
  78.2110330   6.0583920  13.5008750  85.4158350  11.3186980   4.9525940
  85.8554260  12.0611310   4.5381330  85.3545240  11.5613550   5.8764900
  80.8909320  12.3432810  15.8545960  80.8624750  12.7475760  14.9874390
  80.7274290  11.4143170  15.6917560  77.4062250   4.9993520   3.7563080
  77.2859850   5.7255610   3.1444350  77.0963140   4.2296430   3.2790990
  92.8424140  13.1259910  17.1510130  93.3183860  13.6042800  17.8299210
  93.4631300  13.0577400  16.4255630  75.0447620   8.1708660   9.5631720
  75.1228040   8.3057430   8.6187440  75.6589300   7.4624550   9.7559840
  76.2895250   9.8708850   5.9737900  75.8823330  10.0123440   5.1191500
  77.1808260   9.5869010   5.7709110  92.2457390  10.3172760  14.3110140
  92.3720450  10.0784640  13.3927320  92.2878770   9.4857300  14.7832220
  86.1074130  14.0200760  12.8804950  86.6218800  13.9308770  13.6827380
  85.2643210  14.3660460  13.1732860  88.0828530  14.3056100   2.3088950
  87.9229670  14.0159040   3.2070780  87.9175240  13.5296230   1.7734180
  80.5616910  14.0854630   4.0860570  80.3859390  13.1690170   3.8728370
  79.7072650  14.4441920   4.3258370  87.3504590  13.4406370   4.9435440
  87.8061540  12.6595750   5.2574060  87.6897110  14.1513190   5.4876620
  75.1007140   9.2122830  12.1026180  75.2638180   8.7428190  11.2845550
  75.5659590   8.7046390  12.7675020  89.1600230   2.4306060  13.8718730
  88.3093820   2.1311810  14.1927800  89.0002020   2.6748070  12.9602550
  86.2549940   3.9307810  15.9717520  86.5803350   3.0971560  15.6319750
  87.0430270   4.4536330  16.1195850  79.6640130   3.4662160   4.8668000
  79.4381050   3.2499330   5.7714620  78.8832660   3.8990620   4.5213970
  86.8937890   3.4725530   3.4658650  86.2946780   4.1961330   3.2822270
  87.4417500   3.4102310   2.6835100  82.1039340   4.3647740  15.5328270
  82.0082940   3.4242470  15.3828670  82.9471320   4.5862810  15.1376340
  86.0857900   4.6994820   9.5912710  85.3539020   5.2081630   9.9402810
  85.6882240   3.8824800   9.2901490  76.6746120   8.5874260  14.2621990
  76.2900910   7.9467930  14.8604950  76.9858310   9.2910380  14.8316720
  82.8243260   5.4350800   9.7430610  83.1913390   4.9609370  10.4891950
  82.6348320   6.3092370  10.0838950  80.6142630   4.4759440  12.0614820
  80.3099700   5.3551420  12.2865180  81.5689090   4.5359230  12.0972260
  79.1424420   8.6820430   2.6581670  78.3686680   8.1418050   2.4980390
  79.8719050   8.1627040   2.3199430  89.9012400   7.6785790   8.4508060
  90.6211520   8.1741080   8.0604170  89.6994220   7.0003680   7.8061930
  85.2831200   7.7494850  14.3377060  85.2168510   6.8290520  14.0834650
  84.6536340   7.8470290  15.0521700  79.1861820   8.3500810   6.2960480
  79.7040490   7.5469070   6.2417370  78.7345840   8.2879950   7.1377310
  76.6706360   5.3162180  13.2086180  76.3121300   5.9816030  13.7959520
  76.3760920   4.4845730  13.5798800  79.8719480   5.7746420  16.0925730
  79.5719620   5.9203600  15.1953550  80.6430720   5.2151710  15.9999120
  85.2147930  10.5715420  14.0880860  85.2292470   9.6396380  13.8699770
  84.5073030  10.6575180  14.7270630  91.4259140   7.2122760  13.4349440
  90.7007330   7.8051540  13.2378830  91.9534600   7.2046300  12.6362810
  91.3772250  11.6097500   3.0861600  90.7348410  10.9553120   3.3605320
  90.9902910  12.0152590   2.3102270  86.9558730   8.9382930   6.9333290
  87.3082550   8.3411060   6.2734660  86.0721060   8.6127160   7.1041540
  83.0422010   9.6980620   4.3403700  83.7293140  10.2449830   4.7211290
  82.2554430  10.2421350   4.3753310  82.3449220   6.7026650   3.9529060
  82.8012000   7.5131900   4.1789250  81.9937430   6.3849790   4.7847550
  84.6481830  12.2132990  11.1821360  85.2924050  12.4192370  11.8594780
  85.0111270  11.4521390  10.7292210  85.9213910  10.2165340   9.8998810
  86.5636140   9.5158500  10.0130980  86.4463260  10.9963780   9.7195700
  87.6951530  11.0160240  13.1034870  88.0307770  11.6026930  13.7812790
  86.7751870  10.8852950  13.3332660  75.5327520  12.7935680  14.8724810
  75.6418640  11.8530420  14.7320200  74.8808080  13.0590430  14.2238540
  83.5240110  11.0651570  16.2722930  83.2036980  10.3460810  16.8168620
  82.8498470  11.7406640  16.3458990  82.0739770   2.5320620   3.8605170
  81.3655920   3.0006960   4.3018780  82.3584250   1.8742630   4.4950360
  83.6995700   3.9517320  11.8597700  84.1980950   4.4263140  12.5249550
  83.8418650   3.0280840  12.0667730  83.1931990  14.4926580   4.5728940
  83.4473490  14.4547970   3.6508310  82.2444470  14.3659910   4.5657190
  89.1984570   5.4118460   6.1487450  88.2574710   5.4268690   6.3235140
  89.5128640   4.6254420   6.5947750  91.2010150  12.5827310   7.8241710
  91.3257570  13.4058480   8.2965520  92.0675710  12.3718040   7.4765860
  78.6727680  14.6758520   7.4958840  79.4090160  14.1273980   7.7667410
  79.0568600  15.5414530   7.3564830  75.5573160  10.7432090   3.3700350
  74.6312940  10.9853230   3.3605760  76.0229590  11.5706350   3.2485100
  77.6785960  13.8604590  16.6844420  78.4798690  14.1816640  17.0979820
  77.1637780  13.5000170  17.4064330  86.5150590   9.9684460  16.6319830
  85.9088750   9.9916060  15.8915580  86.2104700   9.2367500  17.1687080
  87.9450960  13.6964750  15.2429240  88.8972710  13.6122770  15.1929480
  87.7979180  14.3606460  15.9163030  75.3983770   6.3478050  15.6280470
  75.9022790   5.7685330  16.1996700  74.6591190   6.6318280  16.1656840
  82.4521710   7.7549040  15.1615990  81.6867380   8.3234040  15.0770660
  82.6337670   7.4625250  14.2684220  89.5945060   9.4854370  15.7191010
  90.3354530   9.8230130  15.2158470  88.8317740   9.6546430  15.1660780
  77.4306850   4.4907640  16.5230540  77.4712190   4.1921510  17.4315770
  78.2852350   4.8915250  16.3638060  79.3712660   3.0699740  14.4905030
  78.8409120   2.5790690  13.8628370  80.0400730   3.4983940  13.9562960
  88.2690720   7.5369200  14.2546220  88.6831740   7.6914280  15.1036640
  87.3341720   7.6624420  14.4172000  88.7412890   4.8765360  16.2585370
  89.3233660   4.1217680  16.1705850  88.9174660   5.4072800  15.4816850
  83.0305950   7.4889680  12.2242150  83.4494060   8.3322410  12.0518390
  82.1114580   7.6261720  11.9948930  85.3669850   5.2205860  13.6079990
  85.4866060   4.6247000  14.3474830  86.2263850   5.2575550  13.1881290
  87.7057750   5.7743050  12.1842500  87.1792970   6.2985670  11.5807640
  88.0489090   6.4070440  12.8152230  80.8813370  13.7942690  13.3399880
  80.3434460  14.5188750  13.0208580  81.1347330  13.3173030  12.5497220
  83.7375580  15.0293900  13.5986530  83.6634280  15.9329040  13.9058900
  82.8354420  14.7105800  13.5708600  75.1402870  12.3568490   6.9020150
  75.4705880  11.4889550   6.6698790  75.5693870  12.5627010   7.7325110
  79.7364790  10.6877500   4.5622120  79.4360330  10.5642470   5.4626030
  79.6302280   9.8286090   4.1537850  75.6293080  13.2239080   9.6401780
  75.1924070  13.4039880  10.4725930  76.1970760  13.9813700   9.4983500
  91.2655260  12.7256080  13.9279090  90.6657250  12.7848640  13.1843010
  91.3949160  11.7861060  14.0575940  91.9613170   7.2121380   1.7683000
  92.7232080   7.7818030   1.8742690  91.9767540   6.6448580   2.5391310
  75.4617510   5.7359310   5.9990660  74.8066350   5.4670950   5.3550360
  76.2995460   5.6263790   5.5492640  92.9673140   8.0671480   6.6124930
  93.3381970   7.2838800   6.2060900  93.6075070   8.7560580   6.4342230
  89.9506900   9.4508060  12.0255250  89.1366740   9.8805220  12.2881040
  90.3581100  10.0626470  11.4124300  91.9097680   5.4424740   3.9184950
  91.5341280   4.6752670   3.4866240  91.1800800   5.8247440   4.4059880
  76.4993440   6.1211880  10.5394000  76.8666480   6.0339280  11.4190020
  75.9304260   5.3578430  10.4400860  91.2997300   4.5896260  13.5524470
  91.0683390   4.3609010  12.6522420  91.5601850   5.5095810  13.5069360
  76.0509440   3.0320970  14.4452420  75.1565490   2.9987730  14.7846130
  76.5906990   3.2307760  15.2103670  91.1848640   3.6682230   7.2192190
  91.7086120   3.1744880   6.5882360  91.7708060   3.8032590   7.9639760
  91.3638360   3.7522100  10.7411740  90.4141070   3.7185640  10.8556730
  91.5451370   4.6622210  10.5061510  90.6748610   2.9255580   3.1584600
  91.1707730   2.6926450   3.9433480  90.4764680   2.0867420   2.7422240
  90.0082950  14.2026660   5.5523520  90.6042020  13.8811230   4.8757940
  90.2661100  13.7298480   6.3436790  77.9145520  10.6344570  15.7014150
  77.8715150  10.2637480  16.5828610  78.0456530  11.5722140  15.8415970
  81.6151550  12.1904160  11.3023870  81.3742910  12.4578720  10.4154390
  82.5554190  12.3609890  11.3574730  92.8755710  14.2098540  12.1034510
  92.3813990  14.6067410  11.3861640  92.2669000  13.5847750  12.4971790
  77.7533550  13.5806820  12.8211930  77.1593870  13.4491520  13.5601970
  77.7457390  12.7444960  12.3554030  90.5595160  14.8521960   9.3821250
  90.0998130  15.6037770   9.0079270  89.9307620  14.1328430   9.3236050
  77.3845780  10.9465200  11.7719970  76.6579840  10.3270490  11.7045920
  77.4454930  11.3405810  10.9018050  80.9890880  13.1610200   8.5569380
  81.5055900  12.5497560   8.0317640  81.6388260  13.6638980   9.0480390
  83.7286380  14.0518690   9.3838360  84.0164190  13.7972990   8.5071370
  84.2409600  13.4996050   9.9743930  75.6675780  14.2639590   4.9816730
  75.4997820  13.6310270   5.6798620  74.8010290  14.4698990   4.6310920
  77.2738480  12.9572820   2.4266870  76.7486100  13.3380850   1.7228830
  77.1983060  13.5823590   3.1476580  83.7958740  14.9734790  16.7506560
  84.7226050  14.7379060  16.7942520  83.7809170  15.8006790  16.2692590
  92.0303800  14.5160360   3.7480810  92.2055990  13.8298100   3.1041730
  91.3325370  15.0407410   3.3557480  90.3636300  14.2004650  16.5747600
  91.1561620  13.7053880  16.3673560  90.6569450  14.8794790  17.1823210
  67.7152470  80.1699550  81.3281100  67.6346520  79.2554160  81.0572810
  67.3016890  80.6666620  80.6220810  65.8470510  81.9478570  83.2090370
  65.0712610  81.4679010  83.4988940  66.4983440  81.2684220  83.0346530
  59.8636340  82.2598380  84.0866130  59.0321220  82.0047090  84.4862640
  60.4717320  82.3309150  84.8224050  58.2728290  77.2200270  77.8708520
  57.3844990  77.5616240  77.7688400  58.5569480  77.0200590  76.9789350
  56.2361300  79.8205920  83.7548220  56.8077410  79.0528120  83.7551860
  56.2362840  80.1194680  82.8454830  65.2879500  84.6235760  83.2160530
  65.2187780  83.6825700  83.0549660  66.0499360  84.7137170  83.7883100
  57.4786170  75.2290280  85.5417150  57.2989010  74.3316030  85.8219910
  57.0766250  75.7762150  86.2164100  66.3184670  77.4306140  83.4429460
  66.6949490  76.5578020  83.3303130  66.2204180  77.7664840  82.5519900
  60.4489680  75.8031770  78.9046900  60.5556430  76.7035500  79.2115660
  59.5382040  75.7549740  78.6141550  70.1008790  74.9256580  80.3757800
  70.9218410  74.4353150  80.4183280  70.1342870  75.5154240  81.1289640
  58.0972840  77.7250780  84.1499490  58.7782950  77.9889150  84.7686890
  57.7820890  76.8851650  84.4837500  62.2897410  78.7718140  83.2372080
  62.7975630  79.2699110  83.8777100  62.8210650  77.9953340  83.0611440
  74.3908340  76.9423330  86.9401430  73.6860510  77.3305040  86.4216540
  74.6566260  77.6373620  87.5422360  60.5733510  73.4116700  87.5035500
  60.5751950  73.9289090  86.6981400  59.7437820  72.9346880  87.4805430
  66.9604600  83.5236010  79.0025400  66.3421870  83.9885460  78.4388120
  67.4727850  84.2163490  79.4194910  61.8236360  83.0511880  85.6809000
  61.4905740  83.6780800  86.3230070  62.0003040  83.5773760  84.9010670
  70.3370270  76.8656960  83.1485340  69.6325840  77.1541850  83.7288450
  70.6982430  77.6757070  82.7884900  60.2548840  75.1226660  85.5105950
  60.5965650  75.9668710  85.2159820  59.3164650  75.2710400  85.6271290
  56.3287800  84.2092540  76.3765030  55.9515780  84.6979640  75.6449930
  56.5860870  84.8817820  77.0071560  73.4057190  76.3111750  83.5394550
  72.4582100  76.3450730  83.6709980  73.7307180  77.1250700  83.9243910
  63.9376730  72.6108930  81.8350540  64.2451710  72.0555820  81.1186040
  63.0077430  72.7453390  81.6523530  68.8877230  83.2306060  85.4540610
  69.3046020  83.0166170  84.6194070  69.6117050  83.4878850  86.0249230
  66.3257490  80.6757760  78.5710660  65.3986770  80.6095140  78.7999130
  66.4782310  81.6137890  78.4565900  66.3126570  76.9474760  75.5677820
  65.3730240  77.1088720  75.6530280  66.6309830  77.6660440  75.0213810
  72.8339330  81.6293280  85.5456850  72.0057960  81.6986370  85.0706980
  73.4289810  82.2147590  85.0772680  70.3554780  82.2378060  79.0745910
  69.7367200  81.8997610  78.4272210  70.3379230  81.5937820  79.7825100
  69.7981340  78.4162600  86.4911720  69.3852520  79.2416310  86.7451710
  69.0657290  77.8307640  86.2988080  61.9314130  81.2022500  81.3530390
  61.5271130  80.4899750  80.8576290  62.0177250  80.8575740  82.2418430
  62.3995830  84.8890060  83.5169600  62.1024120  84.2835530  82.8377380
  63.3495650  84.9267370  83.4058960  60.6442750  77.9765710  85.1329430
  61.1957340  78.0861050  84.3582680  61.1586260  78.3503310  85.8484660
  68.5319480  81.4764870  76.0818660  68.9712760  80.6387300  75.9356480
  69.2447900  82.1094270  76.1682800  60.3185480  81.4985070  88.7434770
  60.1793250  82.3707870  89.1122170  59.4366840  81.1557880  88.5982710
  72.1136620  72.7307680  74.3959700  71.8009280  72.8234510  75.2958770
  72.8749090  73.3088710  74.3457130  58.6318760  80.0967480  78.8537040
  58.5116360  80.8229570  78.2418310  58.3219650  79.3270390  78.3764950
  56.2704130  83.2682620  84.6605680  56.3484550  83.4031390  83.7161400
  56.8845810  82.5598510  84.8533800  56.3263650  84.3096790  87.2000140
  56.4894690  83.8402150  86.3819510  56.7916100  83.8020350  87.8648980
  61.0982420  73.4402550  82.2360710  60.6550570  74.2212090  81.9045230
  61.6567410  73.7632440  82.9431650  65.3852230  76.3071070  87.8396030
  64.9231600  76.5154090  88.6515970  64.9830340  75.4930420  87.5366700
  64.2141240  73.0613250  77.1166540  63.5895420  73.0573120  77.8419850
  64.1271360  72.1944210  76.7202510  63.1358320  73.9849880  84.0950310
  63.4330650  74.8912710  84.0142330  63.6843880  73.4968660  83.4809880
  60.8896640  78.5636120  79.9641960  60.6637560  78.3473290  80.8688580
  60.1089170  78.9964580  79.6187930  68.1194400  78.5699490  78.5632610
  67.5203290  79.2935290  78.3796230  68.6674010  78.5076270  77.7809060
  66.7259270  77.2063030  80.5935890  67.1188840  77.5235230  79.7804580
  67.0876120  76.3274910  80.7080410  58.4606390  75.8735370  88.7836010
  58.0669780  76.7210580  88.9908790  57.7724790  75.2361740  88.9744650
  55.7623440  73.7963830  82.8166090  55.4736490  74.3666690  83.5291070
  56.5069200  73.3168280  83.1797320  55.9493670  77.7383950  74.0268810
  55.8668340  78.6814710  74.1683800  55.5976730  77.5958860  73.1481160
  67.3114410  79.7968780  84.6886670  66.5795530  80.3055590  85.0376770
  66.9138750  78.9798760  84.3875450  63.7491800  76.4722980  83.0939160
  63.7527860  76.0312930  82.2443700  64.6442920  76.7940310  83.2010980
  59.5994180  76.3549470  82.0533370  59.2594230  76.8324700  82.8100420
  58.8371500  75.9014590  81.6934470  63.8111950  77.4735060  76.0845920
  63.9324770  77.4321540  77.0331740  63.4260460  78.3359210  75.9292650
  67.7740320  75.2502460  84.1009610  67.7913060  75.7011110  84.9451460
  67.5255900  74.3508100  84.3143050  62.8233450  79.7836200  75.4829220
  62.2550350  79.3354450  74.8565130  63.5322450  80.1428980  74.9494370
  64.0499770  80.5324760  84.8404570  64.4169900  80.0583330  85.5865910
  63.8604830  81.4066330  85.1812910  56.9140260  75.2768450  80.9698040
  56.6287180  74.9124120  81.8076660  56.8519120  74.5448910  80.3561180
  61.8399140  79.5733400  87.1588780  61.5356210  80.4525380  87.3839140
  62.7945600  79.6333190  87.1946220  60.3680930  83.7794390  77.7555630
  59.5943190  83.2392010  77.5954350  61.0975560  83.2601000  77.4173390
  71.1268910  82.7759750  83.5482020  71.8468030  83.2715040  83.1578130
  70.9250730  82.0977640  82.9035890  66.5878850  74.1697710  77.6911410
  65.7743460  73.6710880  77.6156720  66.3940800  75.0095960  77.2747760
  69.3027240  78.5417360  75.9873570  70.1906860  78.8534590  75.8124910
  69.2732330  77.6689610  75.5954150  60.4118330  83.4474770  81.3934440
  60.9297000  82.6443030  81.3391330  59.9602350  83.3853910  82.2351270
  57.8962870  80.4136140  88.3060140  57.5377810  81.0789990  88.8933480
  57.6017430  79.5819690  88.6772760  71.5741510  79.8529200  75.4553430
  71.4905230  80.2843420  74.6049870  72.2935700  80.3127550  75.8880250
  72.6515650  82.3096720  88.5323400  71.9263840  82.9025500  88.3352790
  73.1791110  82.3020260  87.7336770  68.1815240  84.0356890  82.0307250
  68.5339060  83.4385020  81.3708620  67.2977570  83.7101120  82.2015500
  56.4070920  80.4127400  74.9294740  57.2765770  80.6952200  75.2130660
  55.9161240  81.2263270  74.8143550  63.5705730  81.8000610  79.0503020
  64.0268510  82.6105860  79.2763210  63.2193940  81.4823750  79.8821510
  59.4717510  72.1438260  79.5225540  59.3432140  72.1356160  80.4710460
  58.6479530  72.4821350  79.1716550  70.5742390  83.5159860  76.3826070
  70.2864090  83.9772550  77.1703950  71.3694560  83.0557630  76.6510290
  58.3917430  82.2300870  77.0576800  57.7845380  82.9699770  77.0672100
  58.8666780  82.3200230  76.2315000  67.9650220  76.3951690  86.7333690
  68.3331040  75.5746900  87.0613260  67.1048420  76.4553580  87.1489340
  71.3312250  75.3508630  77.5421250  70.7025410  75.4554300  76.8279480
  70.8364170  75.5705410  78.3315130  63.2996280  77.6294580  78.9579130
  62.5912430  78.0980920  79.3992740  63.5840760  76.9716590  79.5924320
  64.9252210  79.0491280  86.9571660  65.4237460  79.5237100  87.6223510
  65.0675160  78.1254800  87.1641690  67.3311710  74.3545240  80.3974920
  67.2079490  74.3731370  79.4484430  68.2796270  74.4024180  80.5173320
  61.5031300  75.9379660  76.3329840  62.3521830  76.3749810  76.2670030
  61.1362570  76.2499920  77.1601900  72.1319070  75.2659240  87.8000050
  71.6292670  76.0064640  88.1393860  72.9475730  75.6543240  87.4836840
  70.4241080  80.5092420  81.2461410  69.4831220  80.5242650  81.4209100
  70.7385150  79.7228380  81.6921710  60.4022720  82.1912020  74.8065370
  61.1685990  82.0793380  75.3690800  60.4797410  81.4949990  74.1542140
  59.0969480  79.6237090  75.4898260  59.1773070  78.6764600  75.6015660
  59.9889230  79.9543970  75.5958920  63.5263900  84.1666200  74.2800720
  63.4214540  83.5518550  75.0062100  63.3588120  83.6432090  73.4963730
  66.7666630  83.2286230  74.8842710  66.2176730  83.6755530  75.5285450
  67.3885890  82.7235480  75.4080380  62.4341750  82.1877150  76.7808010
  62.8558170  82.0217020  77.6239400  62.5592590  81.3777380  76.2863150
  64.9469390  81.2114760  74.0285110  65.4675050  80.4963780  73.6626260
  65.5937790  81.8500630  74.3285620  63.8502910  73.6909310  86.7003670
  63.4020210  73.7133570  85.8549220  63.2168110  73.2928330  87.2973970
  64.2562460  82.5863640  87.3216110  64.6750570  83.4296370  87.1492350
  63.3371090  82.7235680  87.0922890  68.9314260  80.8717010  87.2816460
  68.4049480  81.3959630  86.6781600  69.2745600  81.5044400  87.9126190
  61.3300650  78.2610380  73.7266170  61.1289710  77.3977740  74.0879510
  61.1592700  78.1743740  72.7887770  68.8088960  73.0718610  76.2553050
  69.0891250  72.2286510  76.6112470  68.0354690  73.3041720  76.7691800
  60.1283450  75.3611000  73.7144050  60.4309350  75.3678430  72.8063200
  60.8678040  75.0108860  74.2111710  63.3468380  74.3045620  74.7000250
  62.9990380  73.6269610  74.1202700  63.5481150  73.8435130  75.5143640
  73.1869680  82.3095340  76.8656960  73.9488590  82.8791990  76.9716650
  73.2024050  81.7422540  77.6365270  56.6874020  80.8333270  81.0964620
  56.0322860  80.5644910  80.4524320  57.5251970  80.7237750  80.6466600
  74.1929650  83.1645440  81.7098890  74.5638480  82.3812760  81.3034860
  74.8331580  83.8534540  81.5316190  73.2388850  82.6029710  74.0229480
  73.5137690  83.5108590  73.8948700  73.0499590  82.5392240  74.9591470
  69.6364460  75.6274560  75.3183110  70.0549340  75.4405540  74.4779770
  69.3300520  74.7753610  75.6286040  73.1354190  80.5398700  79.0158910
  72.7597790  79.7726630  78.5840200  72.4057310  80.9221400  79.5033840
  57.7249950  81.2185840  85.6367960  58.0922990  81.1313240  86.5163980
  57.1560770  80.4552390  85.5374820  72.5253810  79.6870220  88.6498430
  72.2939900  79.4582970  87.7496380  72.7858360  80.6069770  88.6043320
  55.9012100  78.0432200  77.0389950  54.9976180  78.3062400  76.8641610
  56.3852720  78.3143370  76.2589910  72.4105150  78.7656190  82.3166150
  72.9342630  78.2718840  81.6856320  72.9964570  78.9006550  83.0613720
  72.5894870  78.8496060  85.8385700  71.6397580  78.8159600  85.9530690
  72.7707880  79.7596170  85.6035470  58.4439310  77.0997740  74.9484330
  59.1531010  76.6780960  74.4631610  57.7279250  77.1672970  74.3167680
  58.0913470  73.1537070  73.9886980  58.8141600  73.6946010  74.3068200
  58.3637990  72.8800490  73.1128520  71.9005120  78.0229540  78.2558560
  72.3964240  77.7900410  79.0407440  71.7021190  77.1841380  77.8396200
  57.7805660  72.4043260  83.8909600  58.4281850  71.8540640  83.4504760
  58.2007500  72.6586410  84.7125410  73.3292280  76.6590490  80.7896240
  73.2191560  76.5046530  81.7278510  74.0899870  76.1311430  80.5471650
  71.6758000  72.5984620  87.2479240  72.3130220  73.2118760  87.6138430
  71.8232890  72.6345280  86.3028470  74.2182550  74.4898410  74.0302380
  75.1431860  74.3579590  73.8220670  74.1958340  74.5691230  74.9838830
  74.2921040  75.2609070  76.6559090  73.4972540  75.1954190  77.1852000
  74.4964320  76.1959710  76.6444440  57.5337660  72.5598930  86.6334920
  57.1852480  73.0162750  87.3993100  57.2025360  71.6656060  86.7157350
  68.4245080  71.9713010  86.1215920  67.5504920  72.3048120  85.9188850
  68.3155830  71.4986190  86.9467790  69.3317060  74.1783880  87.5057640
  69.0030420  73.3635640  87.1259370  70.2799360  74.1353690  87.3823330
  66.1719900  72.8882850  85.0608830  65.3891690  73.3628350  85.3405590
  65.8782830  71.9837680  84.9522010  70.7240970  73.5905950  83.1057920
  71.1649060  73.5351050  82.2579520  70.4548560  74.5063960  83.1768100
  72.5879540  73.2221190  81.1166740  72.5267940  72.2782410  80.9697760
  73.3671570  73.3301280  81.6620200  57.5160310  73.1930330  77.5822550
  58.2739670  73.3059210  77.0086580  57.0537480  74.0299530  77.5365980
  64.0574120  75.3069600  80.5724860  63.2448630  74.9326490  80.2320740
  64.5615760  74.5514680  80.8746050  68.5599100  71.9712050  81.8107930
  69.1628470  72.5432260  82.2856450  67.8192090  72.5351490  81.5881830
  71.7033700  72.3733610  77.0848210  71.8984330  73.2717060  77.3515640
  70.9163570  72.1420690  77.5781160  59.8885460  73.7194380  76.1224520
  60.4178220  72.9324180  75.9932470  60.5213780  74.3985570  76.3560050
  62.0823300  73.4569520  79.1769910  61.4526040  72.7556830  79.3440040
  61.5428440  74.2173650  78.9603070  67.7152470  80.1699550  62.5537610
  67.6346520  79.2554160  62.2829320  67.3016890  80.6666620  61.8477320
  65.8470510  81.9478570  64.4346880  65.0712610  81.4679010  64.7245450
  66.4983440  81.2684220  64.2603040  59.8636340  82.2598380  65.3122640
  59.0321220  82.0047090  65.7119150  60.4717320  82.3309150  66.0480560
  58.2728290  77.2200270  59.0965030  57.3844990  77.5616240  58.9944910
  58.5569480  77.0200590  58.2045860  56.2361300  79.8205920  64.9804730
  56.8077410  79.0528120  64.9808370  56.2362840  80.1194680  64.0711340
  65.2879500  84.6235760  64.4417040  65.2187780  83.6825700  64.2806170
  66.0499360  84.7137170  65.0139610  57.4786170  75.2290280  66.7673660
  57.2989010  74.3316030  67.0476420  57.0766250  75.7762150  67.4420610
  66.3184670  77.4306140  64.6685970  66.6949490  76.5578020  64.5559640
  66.2204180  77.7664840  63.7776410  60.4489680  75.8031770  60.1303410
  60.5556430  76.7035500  60.4372170  59.5382040  75.7549740  59.8398060
  70.1008790  74.9256580  61.6014310  70.9218410  74.4353150  61.6439790
  70.1342870  75.5154240  62.3546150  58.0972840  77.7250780  65.3756000
  58.7782950  77.9889150  65.9943400  57.7820890  76.8851650  65.7094010
  62.2897410  78.7718140  64.4628590  62.7975630  79.2699110  65.1033610
  62.8210650  77.9953340  64.2867950  74.3908340  76.9423330  68.1657940
  73.6860510  77.3305040  67.6473050  74.6566260  77.6373620  68.7678870
  60.5733510  73.4116700  68.7292010  60.5751950  73.9289090  67.9237910
  59.7437820  72.9346880  68.7061940  66.9604600  83.5236010  60.2281910
  66.3421870  83.9885460  59.6644630  67.4727850  84.2163490  60.6451420
  61.8236360  83.0511880  66.9065510  61.4905740  83.6780800  67.5486580
  62.0003040  83.5773760  66.1267180  70.3370270  76.8656960  64.3741850
  69.6325840  77.1541850  64.9544960  70.6982430  77.6757070  64.0141410
  60.2548840  75.1226660  66.7362460  60.5965650  75.9668710  66.4416330
  59.3164650  75.2710400  66.8527800  56.3287800  84.2092540  57.6021540
  55.9515780  84.6979640  56.8706440  56.5860870  84.8817820  58.2328070
  73.4057190  76.3111750  64.7651060  72.4582100  76.3450730  64.8966490
  73.7307180  77.1250700  65.1500420  63.9376730  72.6108930  63.0607050
  64.2451710  72.0555820  62.3442550  63.0077430  72.7453390  62.8780040
  68.8877230  83.2306060  66.6797120  69.3046020  83.0166170  65.8450580
  69.6117050  83.4878850  67.2505740  66.3257490  80.6757760  59.7967170
  65.3986770  80.6095140  60.0255640  66.4782310  81.6137890  59.6822410
  66.3126570  76.9474760  56.7934330  65.3730240  77.1088720  56.8786790
  66.6309830  77.6660440  56.2470320  72.8339330  81.6293280  66.7713360
  72.0057960  81.6986370  66.2963490  73.4289810  82.2147590  66.3029190
  70.3554780  82.2378060  60.3002420  69.7367200  81.8997610  59.6528720
  70.3379230  81.5937820  61.0081610  69.7981340  78.4162600  67.7168230
  69.3852520  79.2416310  67.9708220  69.0657290  77.8307640  67.5244590
  61.9314130  81.2022500  62.5786900  61.5271130  80.4899750  62.0832800
  62.0177250  80.8575740  63.4674940  62.3995830  84.8890060  64.7426110
  62.1024120  84.2835530  64.0633890  63.3495650  84.9267370  64.6315470
  60.6442750  77.9765710  66.3585940  61.1957340  78.0861050  65.5839190
  61.1586260  78.3503310  67.0741170  61.4914260  84.6271750  71.3933910
  60.5942790  84.8511720  71.6407310  61.5167130  84.7506690  70.4445310
  68.5319480  81.4764870  57.3075170  68.9712760  80.6387300  57.1612990
  69.2447900  82.1094270  57.3939310  60.3185480  81.4985070  69.9691280
  60.1793250  82.3707870  70.3378680  59.4366840  81.1557880  69.8239220
  72.1136620  72.7307680  55.6216210  71.8009280  72.8234510  56.5215280
  72.8749090  73.3088710  55.5713640  58.6318760  80.0967480  60.0793550
  58.5116360  80.8229570  59.4674820  58.3219650  79.3270390  59.6021460
  56.2704130  83.2682620  65.8862190  56.3484550  83.4031390  64.9417910
  56.8845810  82.5598510  66.0790310  73.3237910  77.4679180  71.5990350
  72.7082180  77.9758850  71.0705810  73.0034330  76.5677510  71.5416290
  56.3263650  84.3096790  68.4256650  56.4894690  83.8402150  67.6076020
  56.7916100  83.8020350  69.0905490  61.0982420  73.4402550  63.4617220
  60.6550570  74.2212090  63.1301740  61.6567410  73.7632440  64.1688160
  65.3852230  76.3071070  69.0652540  64.9231600  76.5154090  69.8772480
  64.9830340  75.4930420  68.7623210  70.3856740  77.5280020  70.1949200
  69.5350330  77.2285770  70.5158270  70.2258530  77.7722030  69.2833020
  67.4806450  79.0281770  72.2947990  67.8059860  78.1945520  71.9550220
  68.2686780  79.5510290  72.4426320  64.2141240  73.0613250  58.3423050
  63.5895420  73.0573120  59.0676360  64.1271360  72.1944210  57.9459020
  63.1358320  73.9849880  65.3206820  63.4330650  74.8912710  65.2398840
  63.6843880  73.4968660  64.7066390  60.8896640  78.5636120  61.1898470
  60.6637560  78.3473290  62.0945090  60.1089170  78.9964580  60.8444440
  68.1194400  78.5699490  59.7889120  67.5203290  79.2935290  59.6052740
  68.6674010  78.5076270  59.0065570  63.3295850  79.4621700  71.8558740
  63.2339450  78.5216430  71.7059140  64.1727830  79.6836770  71.4606810
  66.7259270  77.2063030  61.8192400  67.1188840  77.5235230  61.0061090
  67.0876120  76.3274910  61.9336920  58.4606390  75.8735370  70.0092520
  58.0669780  76.7210580  70.2165300  57.7724790  75.2361740  70.2001160
  65.0351440  75.9570340  73.0789260  64.3449760  75.7642540  73.7135350
  65.7783740  76.2404980  73.6113560  55.7623440  73.7963830  64.0422600
  55.4736490  74.3666690  64.7547580  56.5069200  73.3168280  64.4053830
  55.9493670  77.7383950  55.2525320  55.8668340  78.6814710  55.3940310
  55.5976730  77.5958860  54.3737670  67.3114410  79.7968780  65.9143180
  66.5795530  80.3055590  66.2633280  66.9138750  78.9798760  65.6131960
  63.7491800  76.4722980  64.3195670  63.7527860  76.0312930  63.4700210
  64.6442920  76.7940310  64.4267490  59.5994180  76.3549470  63.2789880
  59.2594230  76.8324700  64.0356930  58.8371500  75.9014590  62.9190980
  63.8111950  77.4735060  57.3102430  63.9324770  77.4321540  58.2588250
  63.4260460  78.3359210  57.1549160  67.7740320  75.2502460  65.3266120
  67.7913060  75.7011110  66.1707970  67.5255900  74.3508100  65.5399560
  62.8233450  79.7836200  56.7085730  62.2550350  79.3354450  56.0821640
  63.5322450  80.1428980  56.1750880  71.2011070  72.6634640  71.1652500
  71.5256840  71.9324300  71.6910480  71.2367580  72.3448280  70.2633490
  57.9002630  83.6848220  70.5852460  57.5157420  83.0441890  71.1835420
  58.2114820  84.3884340  71.1547190  64.0499770  80.5324760  66.0661080
  64.4169900  80.0583330  66.8122420  63.8604830  81.4066330  66.4069420
  56.9140260  75.2768450  62.1954550  56.6287180  74.9124120  63.0333170
  56.8519120  74.5448910  61.5817690  61.8399140  79.5733400  68.3845290
  61.5356210  80.4525380  68.6095650  62.7945600  79.6333190  68.4202730
  60.3680930  83.7794390  58.9812140  59.5943190  83.2392010  58.8210860
  61.0975560  83.2601000  58.6429900  71.1268910  82.7759750  64.7738530
  71.8468030  83.2715040  64.3834640  70.9250730  82.0977640  64.1292400
  66.5878850  74.1697710  58.9167920  65.7743460  73.6710880  58.8413230
  66.3940800  75.0095960  58.5004270  66.5087710  82.8468810  70.6607530
  66.4425020  81.9264480  70.4065120  65.8792850  82.9444250  71.3752170
  69.3027240  78.5417360  57.2130080  70.1906860  78.8534590  57.0381420
  69.2732330  77.6689610  56.8210660  60.4118330  83.4474770  62.6190950
  60.9297000  82.6443030  62.5647840  59.9602350  83.3853910  63.4607780
  57.8962870  80.4136140  69.5316650  57.5377810  81.0789990  70.1189990
  57.6017430  79.5819690  69.9029270  61.0975990  80.8720380  72.4156200
  60.7976130  81.0177560  71.5184020  61.8687230  80.3125670  72.3229590
  71.5741510  79.8529200  56.6809940  71.4905230  80.2843420  55.8306380
  72.2935700  80.3127550  57.1136760  72.6515650  82.3096720  69.7579910
  71.9263840  82.9025500  69.5609300  73.1791110  82.3020260  68.9593280
  68.1815240  84.0356890  63.2563760  68.5339060  83.4385020  62.5965130
  67.2977570  83.7101120  63.4272010  56.4070920  80.4127400  56.1551250
  57.2765770  80.6952200  56.4387170  55.9161240  81.2263270  56.0400060
  63.5705730  81.8000610  60.2759530  64.0268510  82.6105860  60.5019720
  63.2193940  81.4823750  61.1078020  59.4717510  72.1438260  60.7482050
  59.3432140  72.1356160  61.6966970  58.6479530  72.4821350  60.3973060
  56.4711440  73.9029380  70.2088750  55.7569960  74.1026300  70.8141360
  56.8906480  73.1268950  70.5803550  70.5742390  83.5159860  57.6082580
  70.2864090  83.9772550  58.3960460  71.3694560  83.0557630  57.8766800
  58.3917430  82.2300870  58.2833310  57.7845380  82.9699770  58.2928610
  58.8666780  82.3200230  57.4571510  67.9650220  76.3951690  67.9590200
  68.3331040  75.5746900  68.2869770  67.1048420  76.4553580  68.3745850
  71.3312250  75.3508630  58.7677760  70.7025410  75.4554300  58.0535990
  70.8364170  75.5705410  59.5571640  63.2996280  77.6294580  60.1835640
  62.5912430  78.0980920  60.6249250  63.5840760  76.9716590  60.8180830
  64.9252210  79.0491280  68.1828170  65.4237460  79.5237100  68.8480020
  65.0675160  78.1254800  68.3898200  67.3311710  74.3545240  61.6231430
  67.2079490  74.3731370  60.6740940  68.2796270  74.4024180  61.7429830
  61.5031300  75.9379660  57.5586350  62.3521830  76.3749810  57.4926540
  61.1362570  76.2499920  58.3858410  72.1319070  75.2659240  69.0256560
  71.6292670  76.0064640  69.3650370  72.9475730  75.6543240  68.7093350
  70.4241080  80.5092420  62.4717920  69.4831220  80.5242650  62.6465610
  70.7385150  79.7228380  62.9178220  60.4022720  82.1912020  56.0321880
  61.1685990  82.0793380  56.5947310  60.4797410  81.4949990  55.3798650
  59.0969480  79.6237090  56.7154770  59.1773070  78.6764600  56.8272170
  59.9889230  79.9543970  56.8215430  67.7407100  85.0658420  72.9550300
  67.1345260  85.0890020  72.2146050  67.4361210  84.3341460  73.4917550
  56.6240280  81.4452010  71.9510940  57.1279300  80.8659290  72.5227170
  55.8847700  81.7292240  72.4887310  63.5263900  84.1666200  55.5057230
  63.4214540  83.5518550  56.2318610  63.3588120  83.6432090  54.7220240
  63.6778220  82.8523000  71.4846460  62.9123890  83.4208000  71.4001130
  63.8594180  82.5599210  70.5914690  66.7666630  83.2286230  56.1099220
  66.2176730  83.6755530  56.7541960  67.3885890  82.7235480  56.6336890
  70.8201570  84.5828330  72.0421480  71.5611040  84.9204090  71.5388940
  70.0574250  84.7520390  71.4891250  58.6563360  79.5881600  72.8461010
  58.6968700  79.2895470  73.7546240  59.5108860  79.9889210  72.6868530
  62.4341750  82.1877150  58.0064520  62.8558170  82.0217020  58.8495910
  62.5592590  81.3777380  57.5119660  60.5969170  78.1673700  70.8135500
  60.0665630  77.6764650  70.1858840  61.2657240  78.5957900  70.2793430
  64.9469390  81.2114760  55.2541620  65.4675050  80.4963780  54.8882770
  65.5937790  81.8500630  55.5542130  69.4947230  82.6343160  70.5776690
  69.9088250  82.7888240  71.4267110  68.5598230  82.7598380  70.7402470
  69.9669400  79.9739320  72.5815840  70.5490170  79.2191640  72.4936320
  70.1431170  80.5046760  71.8047320  61.0841470  75.1336070  70.8932790
  60.9898340  74.5156820  70.1683660  60.5038860  75.8602360  70.6662700
  63.8502910  73.6909310  67.9260180  63.4020210  73.7133570  67.0805730
  63.2168110  73.2928330  68.5230480  64.2562460  82.5863640  68.5472620
  64.6750570  83.4296370  68.3748860  63.3371090  82.7235680  68.3179400
  66.5926360  80.3179820  69.9310460  66.7122570  79.7220960  70.6705300
  67.4520360  80.3549510  69.5111760  68.9314260  80.8717010  68.5072970
  68.4049480  81.3959630  67.9038110  69.2745600  81.5044400  69.1382700
  61.3300650  78.2610380  54.9522680  61.1289710  77.3977740  55.3136020
  61.1592700  78.1743740  54.0144280  63.3595130  76.8601170  71.1886280
  63.9494820  76.5517020  71.8764100  62.5415370  76.3880920  71.3446180
  68.1788560  76.4766980  71.4219300  67.4904080  75.8148520  71.3569290
  68.8994580  76.0305250  71.8667760  68.8088960  73.0718610  57.4809560
  69.0891250  72.2286510  57.8368980  68.0354690  73.3041720  57.9948310
  60.1283450  75.3611000  54.9400560  60.4309350  75.3678430  54.0319710
  60.8678040  75.0108860  55.4368220  63.3468380  74.3045620  55.9256760
  62.9990380  73.6269610  55.3459210  63.5481150  73.8435130  56.7400150
  73.1869680  82.3095340  58.0913470  73.9488590  82.8791990  58.1973160
  73.2024050  81.7422540  58.8621780  56.6874020  80.8333270  62.3221130
  56.0322860  80.5644910  61.6780830  57.5251970  80.7237750  61.8723110
  74.1929650  83.1645440  62.9355400  74.5638480  82.3812760  62.5291370
  74.8331580  83.8534540  62.7572700  73.2388850  82.6029710  55.2485990
  73.5137690  83.5108590  55.1205210  73.0499590  82.5392240  56.1847980
  69.6364460  75.6274560  56.5439620  70.0549340  75.4405540  55.7036280
  69.3300520  74.7753610  56.8542550  73.1354190  80.5398700  60.2415420
  72.7597790  79.7726630  59.8096710  72.4057310  80.9221400  60.7290350
  57.7249950  81.2185840  66.8624470  58.0922990  81.1313240  67.7420490
  57.1560770  80.4552390  66.7631330  72.5253810  79.6870220  69.8754940
  72.2939900  79.4582970  68.9752890  72.7858360  80.6069770  69.8299830
  57.2765950  78.1294930  70.7682890  56.3822000  78.0961690  71.1076600
  57.8163500  78.3281720  71.5334140  70.9641880  74.9126650  72.6534640
  71.8412060  74.9210050  73.0368640  70.9762720  74.1757490  72.0426990
  55.9012100  78.0432200  58.2646460  54.9976180  78.3062400  58.0898120
  56.3852720  78.3143370  57.4846420  72.4105150  78.7656190  63.5422660
  72.9342630  78.2718840  62.9112830  72.9964570  78.9006550  64.2870230
  72.5894870  78.8496060  67.0642210  71.6397580  78.8159600  67.1787200
  72.7707880  79.7596170  66.8291980  58.4439310  77.0997740  56.1740840
  59.1531010  76.6780960  55.6888120  57.7279250  77.1672970  55.5424190
  58.0913470  73.1537070  55.2143490  58.8141600  73.6946010  55.5324710
  58.3637990  72.8800490  54.3385030  71.9005120  78.0229540  59.4815070
  72.3964240  77.7900410  60.2663950  71.7021190  77.1841380  59.0652710
  57.7805660  72.4043260  65.1166110  58.4281850  71.8540640  64.6761270
  58.2007500  72.6586410  65.9381920  73.3292280  76.6590490  62.0152750
  73.2191560  76.5046530  62.9535020  74.0899870  76.1311430  61.7728160
  71.6758000  72.5984620  68.4735750  72.3130220  73.2118760  68.8394940
  71.8232890  72.6345280  67.5284980  74.2182550  74.4898410  55.2558890
  75.1431860  74.3579590  55.0477180  74.1958340  74.5691230  56.2095340
  74.2921040  75.2609070  57.8815600  73.4972540  75.1954190  58.4108510
  74.4964320  76.1959710  57.8700950  57.5337660  72.5598930  67.8591430
  57.1852480  73.0162750  68.6249610  57.2025360  71.6656060  67.9413860
  65.0462480  73.7510810  71.3810850  64.9851370  74.3432640  72.1306260
  65.9862860  73.6436770  71.2361110  67.6837040  73.4080870  71.0203140
  68.2977450  73.7260160  70.3584220  68.2286600  72.9229460  71.6399000
  58.2058300  72.0875130  71.1342200  58.7541290  71.9063180  70.3708310
  58.2713610  71.2969240  71.6698510  68.4245080  71.9713010  67.3472430
  67.5504920  72.3048120  67.1445360  68.3155830  71.4986190  68.1724300
  69.3317060  74.1783880  68.7314150  69.0030420  73.3635640  68.3515880
  70.2799360  74.1353690  68.6079840  66.1719900  72.8882850  66.2865340
  65.3891690  73.3628350  66.5662100  65.8782830  71.9837680  66.1778520
  70.7240970  73.5905950  64.3314430  71.1649060  73.5351050  63.4836030
  70.4548560  74.5063960  64.4024610  72.5879540  73.2221190  62.3423250
  72.5267940  72.2782410  62.1954270  73.3671570  73.3301280  62.8876710
  57.5160310  73.1930330  58.8079060  58.2739670  73.3059210  58.2343090
  57.0537480  74.0299530  58.7622490  64.0574120  75.3069600  61.7981370
  63.2448630  74.9326490  61.4577250  64.5615760  74.5514680  62.1002560
  68.5599100  71.9712050  63.0364440  69.1628470  72.5432260  63.5112960
  67.8192090  72.5351490  62.8138340  71.7033700  72.3733610  58.3104720
  71.8984330  73.2717060  58.5772150  70.9163570  72.1420690  58.8037670
  59.8885460  73.7194380  57.3481030  60.4178220  72.9324180  57.2188980
  60.5213780  74.3985570  57.5816560  62.0823300  73.4569520  60.4026420
  61.4526040  72.7556830  60.5696550  61.5428440  74.2173650  60.1859580
  62.2078860  72.7353500  72.8378910  61.9263130  73.2387100  72.0739730
  62.5898560  71.9375250  72.4721040  68.8094320  72.1507080  73.4159380
  68.6959770  72.4701690  74.3110900  69.6264060  72.5519590  73.1196660
  67.7152470  80.1699550  43.7794120  67.6346520  79.2554160  43.5085830
  67.3016890  80.6666620  43.0733830  65.8470510  81.9478570  45.6603390
  65.0712610  81.4679010  45.9501960  66.4983440  81.2684220  45.4859550
  59.8636340  82.2598380  46.5379150  59.0321220  82.0047090  46.9375660
  60.4717320  82.3309150  47.2737070  58.2728290  77.2200270  40.3221540
  57.3844990  77.5616240  40.2201420  58.5569480  77.0200590  39.4302370
  56.2361300  79.8205920  46.2061240  56.8077410  79.0528120  46.2064880
  56.2362840  80.1194680  45.2967850  65.2879500  84.6235760  45.6673550
  65.2187780  83.6825700  45.5062680  66.0499360  84.7137170  46.2396120
  57.4786170  75.2290280  47.9930170  57.2989010  74.3316030  48.2732930
  57.0766250  75.7762150  48.6677120  66.3184670  77.4306140  45.8942480
  66.6949490  76.5578020  45.7816150  66.2204180  77.7664840  45.0032920
  60.4489680  75.8031770  41.3559920  60.5556430  76.7035500  41.6628680
  59.5382040  75.7549740  41.0654570  70.1008790  74.9256580  42.8270820
  70.9218410  74.4353150  42.8696300  70.1342870  75.5154240  43.5802660
  58.0972840  77.7250780  46.6012510  58.7782950  77.9889150  47.2199910
  57.7820890  76.8851650  46.9350520  62.2897410  78.7718140  45.6885100
  62.7975630  79.2699110  46.3290120  62.8210650  77.9953340  45.5124460
  74.3908340  76.9423330  49.3914450  73.6860510  77.3305040  48.8729560
  74.6566260  77.6373620  49.9935380  66.9604600  83.5236010  41.4538420
  66.3421870  83.9885460  40.8901140  67.4727850  84.2163490  41.8707930
  61.8236360  83.0511880  48.1322020  61.4905740  83.6780800  48.7743090
  62.0003040  83.5773760  47.3523690  70.3370270  76.8656960  45.5998360
  69.6325840  77.1541850  46.1801470  70.6982430  77.6757070  45.2397920
  56.3287800  84.2092540  38.8278050  55.9515780  84.6979640  38.0962950
  56.5860870  84.8817820  39.4584580  73.4057190  76.3111750  45.9907570
  72.4582100  76.3450730  46.1223000  73.7307180  77.1250700  46.3756930
  68.8877230  83.2306060  47.9053630  69.3046020  83.0166170  47.0707090
  69.6117050  83.4878850  48.4762250  66.3257490  80.6757760  41.0223680
  65.3986770  80.6095140  41.2512150  66.4782310  81.6137890  40.9078920
  66.3126570  76.9474760  38.0190840  65.3730240  77.1088720  38.1043300
  66.6309830  77.6660440  37.4726830  72.8339330  81.6293280  47.9969870
  72.0057960  81.6986370  47.5220000  73.4289810  82.2147590  47.5285700
  70.3554780  82.2378060  41.5258930  69.7367200  81.8997610  40.8785230
  70.3379230  81.5937820  42.2338120  69.7981340  78.4162600  48.9424740
  69.3852520  79.2416310  49.1964730  69.0657290  77.8307640  48.7501100
  61.9314130  81.2022500  43.8043410  61.5271130  80.4899750  43.3089310
  62.0177250  80.8575740  44.6931450  62.3995830  84.8890060  45.9682620
  62.1024120  84.2835530  45.2890400  63.3495650  84.9267370  45.8571980
  60.6442750  77.9765710  47.5842450  61.1957340  78.0861050  46.8095700
  61.1586260  78.3503310  48.2997680  61.4914260  84.6271750  52.6190420
  60.5942790  84.8511720  52.8663820  61.5167130  84.7506690  51.6701820
  68.5319480  81.4764870  38.5331680  68.9712760  80.6387300  38.3869500
  69.2447900  82.1094270  38.6195820  60.3185480  81.4985070  51.1947790
  60.1793250  82.3707870  51.5635190  59.4366840  81.1557880  51.0495730
  58.6318760  80.0967480  41.3050060  58.5116360  80.8229570  40.6931330
  58.3219650  79.3270390  40.8277970  56.2704130  83.2682620  47.1118700
  56.3484550  83.4031390  46.1674420  56.8845810  82.5598510  47.3046820
  73.3237910  77.4679180  52.8246860  72.7082180  77.9758850  52.2962320
  73.0034330  76.5677510  52.7672800  56.3263650  84.3096790  49.6513160
  56.4894690  83.8402150  48.8332530  56.7916100  83.8020350  50.3162000
  65.3852230  76.3071070  50.2909050  64.9231600  76.5154090  51.1028990
  64.9830340  75.4930420  49.9879720  70.3856740  77.5280020  51.4205710
  69.5350330  77.2285770  51.7414780  70.2258530  77.7722030  50.5089530
  67.4806450  79.0281770  53.5204500  67.8059860  78.1945520  53.1806730
  68.2686780  79.5510290  53.6682830  60.8896640  78.5636120  42.4154980
  60.6637560  78.3473290  43.3201600  60.1089170  78.9964580  42.0700950
  68.1194400  78.5699490  41.0145630  67.5203290  79.2935290  40.8309250
  68.6674010  78.5076270  40.2322080  63.3295850  79.4621700  53.0815250
  63.2339450  78.5216430  52.9315650  64.1727830  79.6836770  52.6863320
  66.7259270  77.2063030  43.0448910  67.1188840  77.5235230  42.2317600
  67.0876120  76.3274910  43.1593430  58.4606390  75.8735370  51.2349030
  58.0669780  76.7210580  51.4421810  57.7724790  75.2361740  51.4257670
  65.0351440  75.9570340  54.3045770  64.3449760  75.7642540  54.9391860
  65.7783740  76.2404980  54.8370070  55.7623440  73.7963830  45.2679110
  55.4736490  74.3666690  45.9804090  56.5069200  73.3168280  45.6310340
  55.9493670  77.7383950  36.4781830  55.8668340  78.6814710  36.6196820
  55.5976730  77.5958860  35.5994180  67.3114410  79.7968780  47.1399690
  66.5795530  80.3055590  47.4889790  66.9138750  78.9798760  46.8388470
  63.7491800  76.4722980  45.5452180  63.7527860  76.0312930  44.6956720
  64.6442920  76.7940310  45.6524000  59.5994180  76.3549470  44.5046390
  59.2594230  76.8324700  45.2613440  58.8371500  75.9014590  44.1447490
  63.8111950  77.4735060  38.5358940  63.9324770  77.4321540  39.4844760
  63.4260460  78.3359210  38.3805670  67.7740320  75.2502460  46.5522630
  67.7913060  75.7011110  47.3964480  67.5255900  74.3508100  46.7656070
  62.8233450  79.7836200  37.9342240  62.2550350  79.3354450  37.3078150
  63.5322450  80.1428980  37.4007390  71.2011070  72.6634640  52.3909010
  71.5256840  71.9324300  52.9166990  71.2367580  72.3448280  51.4890000
  57.9002630  83.6848220  51.8108970  57.5157420  83.0441890  52.4091930
  58.2114820  84.3884340  52.3803700  64.0499770  80.5324760  47.2917590
  64.4169900  80.0583330  48.0378930  63.8604830  81.4066330  47.6325930
  56.9140260  75.2768450  43.4211060  56.6287180  74.9124120  44.2589680
  56.8519120  74.5448910  42.8074200  61.8399140  79.5733400  49.6101800
  61.5356210  80.4525380  49.8352160  62.7945600  79.6333190  49.6459240
  60.3680930  83.7794390  40.2068650  59.5943190  83.2392010  40.0467370
  61.0975560  83.2601000  39.8686410  71.1268910  82.7759750  45.9995040
  71.8468030  83.2715040  45.6091150  70.9250730  82.0977640  45.3548910
  66.5878850  74.1697710  40.1424430  65.7743460  73.6710880  40.0669740
  66.3940800  75.0095960  39.7260780  66.5087710  82.8468810  51.8864040
  66.4425020  81.9264480  51.6321630  65.8792850  82.9444250  52.6008680
  69.3027240  78.5417360  38.4386590  70.1906860  78.8534590  38.2637930
  69.2732330  77.6689610  38.0467170  60.4118330  83.4474770  43.8447460
  60.9297000  82.6443030  43.7904350  59.9602350  83.3853910  44.6864290
  57.8962870  80.4136140  50.7573160  57.5377810  81.0789990  51.3446500
  57.6017430  79.5819690  51.1285780  61.0975990  80.8720380  53.6412710
  60.7976130  81.0177560  52.7440530  61.8687230  80.3125670  53.5486100
  71.5741510  79.8529200  37.9066450  71.4905230  80.2843420  37.0562890
  72.2935700  80.3127550  38.3393270  72.6515650  82.3096720  50.9836420
  71.9263840  82.9025500  50.7865810  73.1791110  82.3020260  50.1849790
  68.1815240  84.0356890  44.4820270  68.5339060  83.4385020  43.8221640
  67.2977570  83.7101120  44.6528520  56.4070920  80.4127400  37.3807760
  57.2765770  80.6952200  37.6643680  55.9161240  81.2263270  37.2656570
  63.5705730  81.8000610  41.5016040  64.0268510  82.6105860  41.7276230
  63.2193940  81.4823750  42.3334530  59.4717510  72.1438260  41.9738560
  59.3432140  72.1356160  42.9223480  58.6479530  72.4821350  41.6229570
  56.4711440  73.9029380  51.4345260  55.7569960  74.1026300  52.0397870
  56.8906480  73.1268950  51.8060060  70.5742390  83.5159860  38.8339090
  70.2864090  83.9772550  39.6216970  71.3694560  83.0557630  39.1023310
  58.3917430  82.2300870  39.5089820  57.7845380  82.9699770  39.5185120
  58.8666780  82.3200230  38.6828020  67.9650220  76.3951690  49.1846710
  68.3331040  75.5746900  49.5126280  67.1048420  76.4553580  49.6002360
  71.3312250  75.3508630  39.9934270  70.7025410  75.4554300  39.2792500
  70.8364170  75.5705410  40.7828150  63.2996280  77.6294580  41.4092150
  62.5912430  78.0980920  41.8505760  63.5840760  76.9716590  42.0437340
  64.9252210  79.0491280  49.4084680  65.4237460  79.5237100  50.0736530
  65.0675160  78.1254800  49.6154710  67.3311710  74.3545240  42.8487940
  67.2079490  74.3731370  41.8997450  68.2796270  74.4024180  42.9686340
  61.5031300  75.9379660  38.7842860  62.3521830  76.3749810  38.7183050
  61.1362570  76.2499920  39.6114920  72.1319070  75.2659240  50.2513070
  71.6292670  76.0064640  50.5906880  72.9475730  75.6543240  49.9349860
  70.4241080  80.5092420  43.6974430  69.4831220  80.5242650  43.8722120
  70.7385150  79.7228380  44.1434730  60.4022720  82.1912020  37.2578390
  61.1685990  82.0793380  37.8203820  60.4797410  81.4949990  36.6055160
  59.0969480  79.6237090  37.9411280  59.1773070  78.6764600  38.0528680
  59.9889230  79.9543970  38.0471940  67.7407100  85.0658420  54.1806810
  67.1345260  85.0890020  53.4402560  67.4361210  84.3341460  54.7174060
  56.6240280  81.4452010  53.1767450  57.1279300  80.8659290  53.7483680
  55.8847700  81.7292240  53.7143820  63.5263900  84.1666200  36.7313740
  63.4214540  83.5518550  37.4575120  63.3588120  83.6432090  35.9476750
  63.6778220  82.8523000  52.7102970  62.9123890  83.4208000  52.6257640
  63.8594180  82.5599210  51.8171200  66.7666630  83.2286230  37.3355730
  66.2176730  83.6755530  37.9798470  67.3885890  82.7235480  37.8593400
  70.8201570  84.5828330  53.2677990  71.5611040  84.9204090  52.7645450
  70.0574250  84.7520390  52.7147760  58.6563360  79.5881600  54.0717520
  58.6968700  79.2895470  54.9802750  59.5108860  79.9889210  53.9125040
  62.4341750  82.1877150  39.2321030  62.8558170  82.0217020  40.0752420
  62.5592590  81.3777380  38.7376170  60.5969170  78.1673700  52.0392010
  60.0665630  77.6764650  51.4115350  61.2657240  78.5957900  51.5049940
  64.9469390  81.2114760  36.4798130  65.4675050  80.4963780  36.1139280
  65.5937790  81.8500630  36.7798640  69.4947230  82.6343160  51.8033200
  69.9088250  82.7888240  52.6523620  68.5598230  82.7598380  51.9658980
  69.9669400  79.9739320  53.8072350  70.5490170  79.2191640  53.7192830
  70.1431170  80.5046760  53.0303830  61.0841470  75.1336070  52.1189300
  60.9898340  74.5156820  51.3940170  60.5038860  75.8602360  51.8919210
  64.2562460  82.5863640  49.7729130  64.6750570  83.4296370  49.6005370
  63.3371090  82.7235680  49.5435910  66.5926360  80.3179820  51.1566970
  66.7122570  79.7220960  51.8961810  67.4520360  80.3549510  50.7368270
  68.9314260  80.8717010  49.7329480  68.4049480  81.3959630  49.1294620
  69.2745600  81.5044400  50.3639210  61.3300650  78.2610380  36.1779190
  61.1289710  77.3977740  36.5392530  61.1592700  78.1743740  35.2400790
  63.3595130  76.8601170  52.4142790  63.9494820  76.5517020  53.1020610
  62.5415370  76.3880920  52.5702690  68.1788560  76.4766980  52.6475810
  67.4904080  75.8148520  52.5825800  68.8994580  76.0305250  53.0924270
  60.1283450  75.3611000  36.1657070  60.4309350  75.3678430  35.2576220
  60.8678040  75.0108860  36.6624730  63.3468380  74.3045620  37.1513270
  62.9990380  73.6269610  36.5715720  63.5481150  73.8435130  37.9656660
  73.1869680  82.3095340  39.3169980  73.9488590  82.8791990  39.4229670
  73.2024050  81.7422540  40.0878290  56.6874020  80.8333270  43.5477640
  56.0322860  80.5644910  42.9037340  57.5251970  80.7237750  43.0979620
  74.1929650  83.1645440  44.1611910  74.5638480  82.3812760  43.7547880
  74.8331580  83.8534540  43.9829210  73.2388850  82.6029710  36.4742500
  73.5137690  83.5108590  36.3461720  73.0499590  82.5392240  37.4104490
  69.6364460  75.6274560  37.7696130  70.0549340  75.4405540  36.9292790
  69.3300520  74.7753610  38.0799060  73.1354190  80.5398700  41.4671930
  72.7597790  79.7726630  41.0353220  72.4057310  80.9221400  41.9546860
  57.7249950  81.2185840  48.0880980  58.0922990  81.1313240  48.9677000
  57.1560770  80.4552390  47.9887840  72.5253810  79.6870220  51.1011450
  72.2939900  79.4582970  50.2009400  72.7858360  80.6069770  51.0556340
  57.2765950  78.1294930  51.9939400  56.3822000  78.0961690  52.3333110
  57.8163500  78.3281720  52.7590650  70.9641880  74.9126650  53.8791150
  71.8412060  74.9210050  54.2625150  70.9762720  74.1757490  53.2683500
  55.9012100  78.0432200  39.4902970  54.9976180  78.3062400  39.3154630
  56.3852720  78.3143370  38.7102930  72.4105150  78.7656190  44.7679170
  72.9342630  78.2718840  44.1369340  72.9964570  78.9006550  45.5126740
  72.5894870  78.8496060  48.2898720  71.6397580  78.8159600  48.4043710
  72.7707880  79.7596170  48.0548490  58.4439310  77.0997740  37.3997350
  59.1531010  76.6780960  36.9144630  57.7279250  77.1672970  36.7680700
  71.9005120  78.0229540  40.7071580  72.3964240  77.7900410  41.4920460
  71.7021190  77.1841380  40.2909220  73.3292280  76.6590490  43.2409260
  73.2191560  76.5046530  44.1791530  74.0899870  76.1311430  42.9984670
  71.6758000  72.5984620  49.6992260  72.3130220  73.2118760  50.0651450
  71.8232890  72.6345280  48.7541490  74.2182550  74.4898410  36.4815400
  75.1431860  74.3579590  36.2733690  74.1958340  74.5691230  37.4351850
  74.2921040  75.2609070  39.1072110  73.4972540  75.1954190  39.6365020
  74.4964320  76.1959710  39.0957460  65.0462480  73.7510810  52.6067360
  64.9851370  74.3432640  53.3562770  65.9862860  73.6436770  52.4617620
  67.6837040  73.4080870  52.2459650  68.2977450  73.7260160  51.5840730
  68.2286600  72.9229460  52.8655510  58.2058300  72.0875130  52.3598710
  58.7541290  71.9063180  51.5964820  58.2713610  71.2969240  52.8955020
  68.4245080  71.9713010  48.5728940  67.5504920  72.3048120  48.3701870
  68.3155830  71.4986190  49.3980810  69.3317060  74.1783880  49.9570660
  69.0030420  73.3635640  49.5772390  70.2799360  74.1353690  49.8336350
  66.1719900  72.8882850  47.5121850  65.3891690  73.3628350  47.7918610
  65.8782830  71.9837680  47.4035030  70.7240970  73.5905950  45.5570940
  71.1649060  73.5351050  44.7092540  70.4548560  74.5063960  45.6281120
  57.5160310  73.1930330  40.0335570  58.2739670  73.3059210  39.4599600
  57.0537480  74.0299530  39.9879000  64.0574120  75.3069600  43.0237880
  63.2448630  74.9326490  42.6833760  64.5615760  74.5514680  43.3259070
  59.8885460  73.7194380  38.5737540  60.4178220  72.9324180  38.4445490
  60.5213780  74.3985570  38.8073070  62.2078860  72.7353500  54.0635420
  61.9263130  73.2387100  53.2996240  62.5898560  71.9375250  53.6977550
  68.8094320  72.1507080  54.6415890  68.6959770  72.4701690  55.5367410
  69.6264060  72.5519590  54.3453170  67.7152470  80.1699550  25.0050630
  67.6346520  79.2554160  24.7342340  67.3016890  80.6666620  24.2990340
  65.8470510  81.9478570  26.8859900  65.0712610  81.4679010  27.1758470
  66.4983440  81.2684220  26.7116060  59.8636340  82.2598380  27.7635660
  59.0321220  82.0047090  28.1632170  60.4717320  82.3309150  28.4993580
  58.2728290  77.2200270  21.5478050  57.3844990  77.5616240  21.4457930
  58.5569480  77.0200590  20.6558880  56.2361300  79.8205920  27.4317750
  56.8077410  79.0528120  27.4321390  56.2362840  80.1194680  26.5224360
  65.2879500  84.6235760  26.8930060  65.2187780  83.6825700  26.7319190
  66.0499360  84.7137170  27.4652630  57.4786170  75.2290280  29.2186680
  57.2989010  74.3316030  29.4989440  57.0766250  75.7762150  29.8933630
  66.3184670  77.4306140  27.1198990  66.6949490  76.5578020  27.0072660
  66.2204180  77.7664840  26.2289430  60.4489680  75.8031770  22.5816430
  60.5556430  76.7035500  22.8885190  59.5382040  75.7549740  22.2911080
  70.1008790  74.9256580  24.0527330  70.9218410  74.4353150  24.0952810
  70.1342870  75.5154240  24.8059170  58.0972840  77.7250780  27.8269020
  58.7782950  77.9889150  28.4456420  57.7820890  76.8851650  28.1607030
  62.2897410  78.7718140  26.9141610  62.7975630  79.2699110  27.5546630
  62.8210650  77.9953340  26.7380970  74.3908340  76.9423330  30.6170960
  73.6860510  77.3305040  30.0986070  74.6566260  77.6373620  31.2191890
  60.5733510  73.4116700  31.1805030  60.5751950  73.9289090  30.3750930
  59.7437820  72.9346880  31.1574960  66.9604600  83.5236010  22.6794930
  66.3421870  83.9885460  22.1157650  67.4727850  84.2163490  23.0964440
  61.8236360  83.0511880  29.3578530  61.4905740  83.6780800  29.9999600
  62.0003040  83.5773760  28.5780200  70.3370270  76.8656960  26.8254870
  69.6325840  77.1541850  27.4057980  70.6982430  77.6757070  26.4654430
  60.2548840  75.1226660  29.1875480  60.5965650  75.9668710  28.8929350
  59.3164650  75.2710400  29.3040820  56.3287800  84.2092540  20.0534560
  55.9515780  84.6979640  19.3219460  56.5860870  84.8817820  20.6841090
  73.4057190  76.3111750  27.2164080  72.4582100  76.3450730  27.3479510
  73.7307180  77.1250700  27.6013440  68.8877230  83.2306060  29.1310140
  69.3046020  83.0166170  28.2963600  69.6117050  83.4878850  29.7018760
  66.3257490  80.6757760  22.2480190  65.3986770  80.6095140  22.4768660
  66.4782310  81.6137890  22.1335430  66.3126570  76.9474760  19.2447350
  65.3730240  77.1088720  19.3299810  66.6309830  77.6660440  18.6983340
  72.8339330  81.6293280  29.2226380  72.0057960  81.6986370  28.7476510
  73.4289810  82.2147590  28.7542210  70.3554780  82.2378060  22.7515440
  69.7367200  81.8997610  22.1041740  70.3379230  81.5937820  23.4594630
  69.7981340  78.4162600  30.1681250  69.3852520  79.2416310  30.4221240
  69.0657290  77.8307640  29.9757610  61.9314130  81.2022500  25.0299920
  61.5271130  80.4899750  24.5345820  62.0177250  80.8575740  25.9187960
  62.3995830  84.8890060  27.1939130  62.1024120  84.2835530  26.5146910
  63.3495650  84.9267370  27.0828490  60.6442750  77.9765710  28.8098960
  61.1957340  78.0861050  28.0352210  61.1586260  78.3503310  29.5254190
  61.4914260  84.6271750  33.8446930  60.5942790  84.8511720  34.0920330
  61.5167130  84.7506690  32.8958330  68.5319480  81.4764870  19.7588190
  68.9712760  80.6387300  19.6126010  69.2447900  82.1094270  19.8452330
  60.3185480  81.4985070  32.4204300  60.1793250  82.3707870  32.7891700
  59.4366840  81.1557880  32.2752240  72.1136620  72.7307680  18.0729230
  71.8009280  72.8234510  18.9728300  72.8749090  73.3088710  18.0226660
  58.6318760  80.0967480  22.5306570  58.5116360  80.8229570  21.9187840
  58.3219650  79.3270390  22.0534480  56.2704130  83.2682620  28.3375210
  56.3484550  83.4031390  27.3930930  56.8845810  82.5598510  28.5303330
  73.3237910  77.4679180  34.0503370  72.7082180  77.9758850  33.5218830
  73.0034330  76.5677510  33.9929310  56.3263650  84.3096790  30.8769670
  56.4894690  83.8402150  30.0589040  56.7916100  83.8020350  31.5418510
  61.0982420  73.4402550  25.9130240  60.6550570  74.2212090  25.5814760
  61.6567410  73.7632440  26.6201180  65.3852230  76.3071070  31.5165560
  64.9231600  76.5154090  32.3285500  64.9830340  75.4930420  31.2136230
  70.3856740  77.5280020  32.6462220  69.5350330  77.2285770  32.9671290
  70.2258530  77.7722030  31.7346040  67.4806450  79.0281770  34.7461010
  67.8059860  78.1945520  34.4063240  68.2686780  79.5510290  34.8939340
  64.2141240  73.0613250  20.7936070  63.5895420  73.0573120  21.5189380
  64.1271360  72.1944210  20.3972040  63.1358320  73.9849880  27.7719840
  63.4330650  74.8912710  27.6911860  63.6843880  73.4968660  27.1579410
  60.8896640  78.5636120  23.6411490  60.6637560  78.3473290  24.5458110
  60.1089170  78.9964580  23.2957460  68.1194400  78.5699490  22.2402140
  67.5203290  79.2935290  22.0565760  68.6674010  78.5076270  21.4578590
  63.3295850  79.4621700  34.3071760  63.2339450  78.5216430  34.1572160
  64.1727830  79.6836770  33.9119830  66.7259270  77.2063030  24.2705420
  67.1188840  77.5235230  23.4574110  67.0876120  76.3274910  24.3849940
  58.4606390  75.8735370  32.4605540  58.0669780  76.7210580  32.6678320
  57.7724790  75.2361740  32.6514180  55.7623440  73.7963830  26.4935620
  55.4736490  74.3666690  27.2060600  56.5069200  73.3168280  26.8566850
  55.9493670  77.7383950  17.7038340  55.8668340  78.6814710  17.8453330
  55.5976730  77.5958860  16.8250690  67.3114410  79.7968780  28.3656200
  66.5795530  80.3055590  28.7146300  66.9138750  78.9798760  28.0644980
  63.7491800  76.4722980  26.7708690  63.7527860  76.0312930  25.9213230
  64.6442920  76.7940310  26.8780510  59.5994180  76.3549470  25.7302900
  59.2594230  76.8324700  26.4869950  58.8371500  75.9014590  25.3704000
  63.8111950  77.4735060  19.7615450  63.9324770  77.4321540  20.7101270
  63.4260460  78.3359210  19.6062180  67.7740320  75.2502460  27.7779140
  67.7913060  75.7011110  28.6220990  67.5255900  74.3508100  27.9912580
  62.8233450  79.7836200  19.1598750  62.2550350  79.3354450  18.5334660
  63.5322450  80.1428980  18.6263900  57.9002630  83.6848220  33.0365480
  57.5157420  83.0441890  33.6348440  58.2114820  84.3884340  33.6060210
  64.0499770  80.5324760  28.5174100  64.4169900  80.0583330  29.2635440
  63.8604830  81.4066330  28.8582440  56.9140260  75.2768450  24.6467570
  56.6287180  74.9124120  25.4846190  56.8519120  74.5448910  24.0330710
  61.8399140  79.5733400  30.8358310  61.5356210  80.4525380  31.0608670
  62.7945600  79.6333190  30.8715750  60.3680930  83.7794390  21.4325160
  59.5943190  83.2392010  21.2723880  61.0975560  83.2601000  21.0942920
  71.1268910  82.7759750  27.2251550  71.8468030  83.2715040  26.8347660
  70.9250730  82.0977640  26.5805420  66.5878850  74.1697710  21.3680940
  65.7743460  73.6710880  21.2926250  66.3940800  75.0095960  20.9517290
  66.5087710  82.8468810  33.1120550  66.4425020  81.9264480  32.8578140
  65.8792850  82.9444250  33.8265190  69.3027240  78.5417360  19.6643100
  70.1906860  78.8534590  19.4894440  69.2732330  77.6689610  19.2723680
  60.4118330  83.4474770  25.0703970  60.9297000  82.6443030  25.0160860
  59.9602350  83.3853910  25.9120800  57.8962870  80.4136140  31.9829670
  57.5377810  81.0789990  32.5703010  57.6017430  79.5819690  32.3542290
  61.0975990  80.8720380  34.8669220  60.7976130  81.0177560  33.9697040
  61.8687230  80.3125670  34.7742610  71.5741510  79.8529200  19.1322960
  71.4905230  80.2843420  18.2819400  72.2935700  80.3127550  19.5649780
  72.6515650  82.3096720  32.2092930  71.9263840  82.9025500  32.0122320
  73.1791110  82.3020260  31.4106300  68.1815240  84.0356890  25.7076780
  68.5339060  83.4385020  25.0478150  67.2977570  83.7101120  25.8785030
  56.4070920  80.4127400  18.6064270  57.2765770  80.6952200  18.8900190
  55.9161240  81.2263270  18.4913080  63.5705730  81.8000610  22.7272550
  64.0268510  82.6105860  22.9532740  63.2193940  81.4823750  23.5591040
  59.4717510  72.1438260  23.1995070  59.3432140  72.1356160  24.1479990
  58.6479530  72.4821350  22.8486080  56.4711440  73.9029380  32.6601770
  55.7569960  74.1026300  33.2654380  56.8906480  73.1268950  33.0316570
  70.5742390  83.5159860  20.0595600  70.2864090  83.9772550  20.8473480
  71.3694560  83.0557630  20.3279820  58.3917430  82.2300870  20.7346330
  57.7845380  82.9699770  20.7441630  58.8666780  82.3200230  19.9084530
  67.9650220  76.3951690  30.4103220  68.3331040  75.5746900  30.7382790
  67.1048420  76.4553580  30.8258870  71.3312250  75.3508630  21.2190780
  70.7025410  75.4554300  20.5049010  70.8364170  75.5705410  22.0084660
  63.2996280  77.6294580  22.6348660  62.5912430  78.0980920  23.0762270
  63.5840760  76.9716590  23.2693850  64.9252210  79.0491280  30.6341190
  65.4237460  79.5237100  31.2993040  65.0675160  78.1254800  30.8411220
  67.3311710  74.3545240  24.0744450  67.2079490  74.3731370  23.1253960
  68.2796270  74.4024180  24.1942850  61.5031300  75.9379660  20.0099370
  62.3521830  76.3749810  19.9439560  61.1362570  76.2499920  20.8371430
  72.1319070  75.2659240  31.4769580  71.6292670  76.0064640  31.8163390
  72.9475730  75.6543240  31.1606370  70.4241080  80.5092420  24.9230940
  69.4831220  80.5242650  25.0978630  70.7385150  79.7228380  25.3691240
  60.4022720  82.1912020  18.4834900  61.1685990  82.0793380  19.0460330
  60.4797410  81.4949990  17.8311670  59.0969480  79.6237090  19.1667790
  59.1773070  78.6764600  19.2785190  59.9889230  79.9543970  19.2728450
  67.7407100  85.0658420  35.4063320  67.1345260  85.0890020  34.6659070
  67.4361210  84.3341460  35.9430570  56.6240280  81.4452010  34.4023960
  57.1279300  80.8659290  34.9740190  55.8847700  81.7292240  34.9400330
  63.5263900  84.1666200  17.9570250  63.4214540  83.5518550  18.6831630
  63.3588120  83.6432090  17.1733260  63.6778220  82.8523000  33.9359480
  62.9123890  83.4208000  33.8514150  63.8594180  82.5599210  33.0427710
  66.7666630  83.2286230  18.5612240  66.2176730  83.6755530  19.2054980
  67.3885890  82.7235480  19.0849910  70.8201570  84.5828330  34.4934500
  71.5611040  84.9204090  33.9901960  70.0574250  84.7520390  33.9404270
  58.6563360  79.5881600  35.2974030  58.6968700  79.2895470  36.2059260
  59.5108860  79.9889210  35.1381550  62.4341750  82.1877150  20.4577540
  62.8558170  82.0217020  21.3008930  62.5592590  81.3777380  19.9632680
  60.5969170  78.1673700  33.2648520  60.0665630  77.6764650  32.6371860
  61.2657240  78.5957900  32.7306450  64.9469390  81.2114760  17.7054640
  65.4675050  80.4963780  17.3395790  65.5937790  81.8500630  18.0055150
  69.4947230  82.6343160  33.0289710  69.9088250  82.7888240  33.8780130
  68.5598230  82.7598380  33.1915490  69.9669400  79.9739320  35.0328860
  70.5490170  79.2191640  34.9449340  70.1431170  80.5046760  34.2560340
  61.0841470  75.1336070  33.3445810  60.9898340  74.5156820  32.6196680
  60.5038860  75.8602360  33.1175720  63.8502910  73.6909310  30.3773200
  63.4020210  73.7133570  29.5318750  63.2168110  73.2928330  30.9743500
  64.2562460  82.5863640  30.9985640  64.6750570  83.4296370  30.8261880
  63.3371090  82.7235680  30.7692420  66.5926360  80.3179820  32.3823480
  66.7122570  79.7220960  33.1218320  67.4520360  80.3549510  31.9624780
  68.9314260  80.8717010  30.9585990  68.4049480  81.3959630  30.3551130
  69.2745600  81.5044400  31.5895720  61.3300650  78.2610380  17.4035700
  61.1289710  77.3977740  17.7649040  61.1592700  78.1743740  16.4657300
  63.3595130  76.8601170  33.6399300  63.9494820  76.5517020  34.3277120
  62.5415370  76.3880920  33.7959200  68.8088960  73.0718610  19.9322580
  69.0891250  72.2286510  20.2882000  68.0354690  73.3041720  20.4461330
  60.1283450  75.3611000  17.3913580  60.4309350  75.3678430  16.4832730
  60.8678040  75.0108860  17.8881240  63.3468380  74.3045620  18.3769780
  62.9990380  73.6269610  17.7972230  63.5481150  73.8435130  19.1913170
  73.1869680  82.3095340  20.5426490  73.9488590  82.8791990  20.6486180
  73.2024050  81.7422540  21.3134800  56.6874020  80.8333270  24.7734150
  56.0322860  80.5644910  24.1293850  57.5251970  80.7237750  24.3236130
  74.1929650  83.1645440  25.3868420  74.5638480  82.3812760  24.9804390
  74.8331580  83.8534540  25.2085720  73.2388850  82.6029710  17.6999010
  73.5137690  83.5108590  17.5718230  73.0499590  82.5392240  18.6361000
  69.6364460  75.6274560  18.9952640  70.0549340  75.4405540  18.1549300
  69.3300520  74.7753610  19.3055570  73.1354190  80.5398700  22.6928440
  72.7597790  79.7726630  22.2609730  72.4057310  80.9221400  23.1803370
  57.7249950  81.2185840  29.3137490  58.0922990  81.1313240  30.1933510
  57.1560770  80.4552390  29.2144350  72.5253810  79.6870220  32.3267960
  72.2939900  79.4582970  31.4265910  72.7858360  80.6069770  32.2812850
  57.2765950  78.1294930  33.2195910  56.3822000  78.0961690  33.5589620
  57.8163500  78.3281720  33.9847160  55.9012100  78.0432200  20.7159480
  54.9976180  78.3062400  20.5411140  56.3852720  78.3143370  19.9359440
  72.4105150  78.7656190  25.9935680  72.9342630  78.2718840  25.3625850
  72.9964570  78.9006550  26.7383250  72.5894870  78.8496060  29.5155230
  71.6397580  78.8159600  29.6300220  72.7707880  79.7596170  29.2805000
  58.4439310  77.0997740  18.6253860  59.1531010  76.6780960  18.1401140
  57.7279250  77.1672970  17.9937210  58.0913470  73.1537070  17.6656510
  58.8141600  73.6946010  17.9837730  58.3637990  72.8800490  16.7898050
  71.9005120  78.0229540  21.9328090  72.3964240  77.7900410  22.7176970
  71.7021190  77.1841380  21.5165730  57.7805660  72.4043260  27.5679130
  58.4281850  71.8540640  27.1274290  58.2007500  72.6586410  28.3894940
  73.3292280  76.6590490  24.4665770  73.2191560  76.5046530  25.4048040
  74.0899870  76.1311430  24.2241180  71.6758000  72.5984620  30.9248770
  72.3130220  73.2118760  31.2907960  71.8232890  72.6345280  29.9798000
  74.2182550  74.4898410  17.7071910  75.1431860  74.3579590  17.4990200
  74.1958340  74.5691230  18.6608360  74.2921040  75.2609070  20.3328620
  73.4972540  75.1954190  20.8621530  74.4964320  76.1959710  20.3213970
  57.5337660  72.5598930  30.3104450  57.1852480  73.0162750  31.0762630
  57.2025360  71.6656060  30.3926880  66.1719900  72.8882850  28.7378360
  65.3891690  73.3628350  29.0175120  65.8782830  71.9837680  28.6291540
  70.7240970  73.5905950  26.7827450  71.1649060  73.5351050  25.9349050
  70.4548560  74.5063960  26.8537630  72.5879540  73.2221190  24.7936270
  72.5267940  72.2782410  24.6467290  73.3671570  73.3301280  25.3389730
  57.5160310  73.1930330  21.2592080  58.2739670  73.3059210  20.6856110
  57.0537480  74.0299530  21.2135510  64.0574120  75.3069600  24.2494390
  63.2448630  74.9326490  23.9090270  64.5615760  74.5514680  24.5515580
  71.7033700  72.3733610  20.7617740  71.8984330  73.2717060  21.0285170
  70.9163570  72.1420690  21.2550690  59.8885460  73.7194380  19.7994050
  60.4178220  72.9324180  19.6702000  60.5213780  74.3985570  20.0329580
  62.0823300  73.4569520  22.8539440  61.4526040  72.7556830  23.0209570
  61.5428440  74.2173650  22.6372600  62.2078860  72.7353500  35.2891930
  61.9263130  73.2387100  34.5252750  62.5898560  71.9375250  34.9234060
  67.7152470  80.1699550   6.2307140  67.6346520  79.2554160   5.9598850
  67.3016890  80.6666620   5.5246850  65.8470510  81.9478570   8.1116410
  65.0712610  81.4679010   8.4014980  66.4983440  81.2684220   7.9372570
  59.8636340  82.2598380   8.9892170  59.0321220  82.0047090   9.3888680
  60.4717320  82.3309150   9.7250090  58.2728290  77.2200270   2.7734560
  57.3844990  77.5616240   2.6714440  58.5569480  77.0200590   1.8815390
  56.2361300  79.8205920   8.6574260  56.8077410  79.0528120   8.6577900
  56.2362840  80.1194680   7.7480870  65.2879500  84.6235760   8.1186570
  65.2187780  83.6825700   7.9575700  66.0499360  84.7137170   8.6909140
  57.4786170  75.2290280  10.4443190  57.2989010  74.3316030  10.7245950
  57.0766250  75.7762150  11.1190140  66.3184670  77.4306140   8.3455500
  66.6949490  76.5578020   8.2329170  66.2204180  77.7664840   7.4545940
  60.4489680  75.8031770   3.8072940  60.5556430  76.7035500   4.1141700
  59.5382040  75.7549740   3.5167590  70.1008790  74.9256580   5.2783840
  70.9218410  74.4353150   5.3209320  70.1342870  75.5154240   6.0315680
  58.0972840  77.7250780   9.0525530  58.7782950  77.9889150   9.6712930
  57.7820890  76.8851650   9.3863540  62.2897410  78.7718140   8.1398120
  62.7975630  79.2699110   8.7803140  62.8210650  77.9953340   7.9637480
  74.3908340  76.9423330  11.8427470  73.6860510  77.3305040  11.3242580
  74.6566260  77.6373620  12.4448400  60.5733510  73.4116700  12.4061540
  60.5751950  73.9289090  11.6007440  59.7437820  72.9346880  12.3831470
  66.9604600  83.5236010   3.9051440  66.3421870  83.9885460   3.3414160
  67.4727850  84.2163490   4.3220950  61.8236360  83.0511880  10.5835040
  61.4905740  83.6780800  11.2256110  62.0003040  83.5773760   9.8036710
  70.3370270  76.8656960   8.0511380  69.6325840  77.1541850   8.6314490
  70.6982430  77.6757070   7.6910940  60.2548840  75.1226660  10.4131990
  60.5965650  75.9668710  10.1185860  59.3164650  75.2710400  10.5297330
  73.4057190  76.3111750   8.4420590  72.4582100  76.3450730   8.5736020
  73.7307180  77.1250700   8.8269950  63.9376730  72.6108930   6.7376580
  64.2451710  72.0555820   6.0212080  63.0077430  72.7453390   6.5549570
  68.8877230  83.2306060  10.3566650  69.3046020  83.0166170   9.5220110
  69.6117050  83.4878850  10.9275270  66.3257490  80.6757760   3.4736700
  65.3986770  80.6095140   3.7025170  66.4782310  81.6137890   3.3591940
  72.8339330  81.6293280  10.4482890  72.0057960  81.6986370   9.9733020
  73.4289810  82.2147590   9.9798720  70.3554780  82.2378060   3.9771950
  69.7367200  81.8997610   3.3298250  70.3379230  81.5937820   4.6851140
  69.7981340  78.4162600  11.3937760  69.3852520  79.2416310  11.6477750
  69.0657290  77.8307640  11.2014120  61.9314130  81.2022500   6.2556430
  61.5271130  80.4899750   5.7602330  62.0177250  80.8575740   7.1444470
  62.3995830  84.8890060   8.4195640  62.1024120  84.2835530   7.7403420
  63.3495650  84.9267370   8.3085000  60.6442750  77.9765710  10.0355470
  61.1957340  78.0861050   9.2608720  61.1586260  78.3503310  10.7510700
  61.4914260  84.6271750  15.0703440  60.5942790  84.8511720  15.3176840
  61.5167130  84.7506690  14.1214840  60.3185480  81.4985070  13.6460810
  60.1793250  82.3707870  14.0148210  59.4366840  81.1557880  13.5008750
  58.6318760  80.0967480   3.7563080  58.5116360  80.8229570   3.1444350
  58.3219650  79.3270390   3.2790990  56.2704130  83.2682620   9.5631720
  56.3484550  83.4031390   8.6187440  56.8845810  82.5598510   9.7559840
  73.3237910  77.4679180  15.2759880  72.7082180  77.9758850  14.7475340
  73.0034330  76.5677510  15.2185820  56.3263650  84.3096790  12.1026180
  56.4894690  83.8402150  11.2845550  56.7916100  83.8020350  12.7675020
  61.0982420  73.4402550   7.1386750  60.6550570  74.2212090   6.8071270
  61.6567410  73.7632440   7.8457690  65.3852230  76.3071070  12.7422070
  64.9231600  76.5154090  13.5542010  64.9830340  75.4930420  12.4392740
  70.3856740  77.5280020  13.8718730  69.5350330  77.2285770  14.1927800
  70.2258530  77.7722030  12.9602550  67.4806450  79.0281770  15.9717520
  67.8059860  78.1945520  15.6319750  68.2686780  79.5510290  16.1195850
  63.1358320  73.9849880   8.9976350  63.4330650  74.8912710   8.9168370
  63.6843880  73.4968660   8.3835920  60.8896640  78.5636120   4.8668000
  60.6637560  78.3473290   5.7714620  60.1089170  78.9964580   4.5213970
  68.1194400  78.5699490   3.4658650  67.5203290  79.2935290   3.2822270
  68.6674010  78.5076270   2.6835100  63.3295850  79.4621700  15.5328270
  63.2339450  78.5216430  15.3828670  64.1727830  79.6836770  15.1376340
  66.7259270  77.2063030   5.4961930  67.1188840  77.5235230   4.6830620
  67.0876120  76.3274910   5.6106450  58.4606390  75.8735370  13.6862050
  58.0669780  76.7210580  13.8934830  57.7724790  75.2361740  13.8770690
  65.0351440  75.9570340  16.7558790  64.3449760  75.7642540  17.3904880
  65.7783740  76.2404980  17.2883090  55.7623440  73.7963830   7.7192130
  55.4736490  74.3666690   8.4317110  56.5069200  73.3168280   8.0823360
  67.3114410  79.7968780   9.5912710  66.5795530  80.3055590   9.9402810
  66.9138750  78.9798760   9.2901490  63.7491800  76.4722980   7.9965200
  63.7527860  76.0312930   7.1469740  64.6442920  76.7940310   8.1037020
  59.5994180  76.3549470   6.9559410  59.2594230  76.8324700   7.7126460
  58.8371500  75.9014590   6.5960510  67.7740320  75.2502460   9.0035650
  67.7913060  75.7011110   9.8477500  67.5255900  74.3508100   9.2169090
  71.2011070  72.6634640  14.8422030  71.5256840  71.9324300  15.3680010
  71.2367580  72.3448280  13.9403020  57.9002630  83.6848220  14.2621990
  57.5157420  83.0441890  14.8604950  58.2114820  84.3884340  14.8316720
  64.0499770  80.5324760   9.7430610  64.4169900  80.0583330  10.4891950
  63.8604830  81.4066330  10.0838950  56.9140260  75.2768450   5.8724080
  56.6287180  74.9124120   6.7102700  56.8519120  74.5448910   5.2587220
  61.8399140  79.5733400  12.0614820  61.5356210  80.4525380  12.2865180
  62.7945600  79.6333190  12.0972260  60.3680930  83.7794390   2.6581670
  59.5943190  83.2392010   2.4980390  61.0975560  83.2601000   2.3199430
  71.1268910  82.7759750   8.4508060  71.8468030  83.2715040   8.0604170
  70.9250730  82.0977640   7.8061930  66.5878850  74.1697710   2.5937450
  65.7743460  73.6710880   2.5182760  66.3940800  75.0095960   2.1773800
  66.5087710  82.8468810  14.3377060  66.4425020  81.9264480  14.0834650
  65.8792850  82.9444250  15.0521700  60.4118330  83.4474770   6.2960480
  60.9297000  82.6443030   6.2417370  59.9602350  83.3853910   7.1377310
  57.8962870  80.4136140  13.2086180  57.5377810  81.0789990  13.7959520
  57.6017430  79.5819690  13.5798800  61.0975990  80.8720380  16.0925730
  60.7976130  81.0177560  15.1953550  61.8687230  80.3125670  15.9999120
  72.6515650  82.3096720  13.4349440  71.9263840  82.9025500  13.2378830
  73.1791110  82.3020260  12.6362810  68.1815240  84.0356890   6.9333290
  68.5339060  83.4385020   6.2734660  67.2977570  83.7101120   7.1041540
  63.5705730  81.8000610   3.9529060  64.0268510  82.6105860   4.1789250
  63.2193940  81.4823750   4.7847550  59.4717510  72.1438260   4.4251580
  59.3432140  72.1356160   5.3736500  58.6479530  72.4821350   4.0742590
  56.4711440  73.9029380  13.8858280  55.7569960  74.1026300  14.4910890
  56.8906480  73.1268950  14.2573080  67.9650220  76.3951690  11.6359730
  68.3331040  75.5746900  11.9639300  67.1048420  76.4553580  12.0515380
  71.3312250  75.3508630   2.4447290  70.7025410  75.4554300   1.7305520
  70.8364170  75.5705410   3.2341170  63.2996280  77.6294580   3.8605170
  62.5912430  78.0980920   4.3018780  63.5840760  76.9716590   4.4950360
  64.9252210  79.0491280  11.8597700  65.4237460  79.5237100  12.5249550
  65.0675160  78.1254800  12.0667730  67.3311710  74.3545240   5.3000960
  67.2079490  74.3731370   4.3510470  68.2796270  74.4024180   5.4199360
  72.1319070  75.2659240  12.7026090  71.6292670  76.0064640  13.0419900
  72.9475730  75.6543240  12.3862880  70.4241080  80.5092420   6.1487450
  69.4831220  80.5242650   6.3235140  70.7385150  79.7228380   6.5947750
  67.7407100  85.0658420  16.6319830  67.1345260  85.0890020  15.8915580
  67.4361210  84.3341460  17.1687080  56.6240280  81.4452010  15.6280470
  57.1279300  80.8659290  16.1996700  55.8847700  81.7292240  16.1656840
  63.6778220  82.8523000  15.1615990  62.9123890  83.4208000  15.0770660
  63.8594180  82.5599210  14.2684220  70.8201570  84.5828330  15.7191010
  71.5611040  84.9204090  15.2158470  70.0574250  84.7520390  15.1660780
  58.6563360  79.5881600  16.5230540  58.6968700  79.2895470  17.4315770
  59.5108860  79.9889210  16.3638060  60.5969170  78.1673700  14.4905030
  60.0665630  77.6764650  13.8628370  61.2657240  78.5957900  13.9562960
  69.4947230  82.6343160  14.2546220  69.9088250  82.7888240  15.1036640
  68.5598230  82.7598380  14.4172000  69.9669400  79.9739320  16.2585370
  70.5490170  79.2191640  16.1705850  70.1431170  80.5046760  15.4816850
  61.0841470  75.1336070  14.5702320  60.9898340  74.5156820  13.8453190
  60.5038860  75.8602360  14.3432230  63.8502910  73.6909310  11.6029710
  63.4020210  73.7133570  10.7575260  63.2168110  73.2928330  12.2000010
  64.2562460  82.5863640  12.2242150  64.6750570  83.4296370  12.0518390
  63.3371090  82.7235680  11.9948930  66.5926360  80.3179820  13.6079990
  66.7122570  79.7220960  14.3474830  67.4520360  80.3549510  13.1881290
  68.9314260  80.8717010  12.1842500  68.4049480  81.3959630  11.5807640
  69.2745600  81.5044400  12.8152230  63.3595130  76.8601170  14.8655810
  63.9494820  76.5517020  15.5533630  62.5415370  76.3880920  15.0215710
  68.1788560  76.4766980  15.0988830  67.4904080  75.8148520  15.0338820
  68.8994580  76.0305250  15.5437290  73.1869680  82.3095340   1.7683000
  73.9488590  82.8791990   1.8742690  73.2024050  81.7422540   2.5391310
  56.6874020  80.8333270   5.9990660  56.0322860  80.5644910   5.3550360
  57.5251970  80.7237750   5.5492640  74.1929650  83.1645440   6.6124930
  74.5638480  82.3812760   6.2060900  74.8331580  83.8534540   6.4342230
  73.1354190  80.5398700   3.9184950  72.7597790  79.7726630   3.4866240
  72.4057310  80.9221400   4.4059880  57.7249950  81.2185840  10.5394000
  58.0922990  81.1313240  11.4190020  57.1560770  80.4552390  10.4400860
  72.5253810  79.6870220  13.5524470  72.2939900  79.4582970  12.6522420
  72.7858360  80.6069770  13.5069360  57.2765950  78.1294930  14.4452420
  56.3822000  78.0961690  14.7846130  57.8163500  78.3281720  15.2103670
  70.9641880  74.9126650  16.3304170  71.8412060  74.9210050  16.7138170
  70.9762720  74.1757490  15.7196520  72.4105150  78.7656190   7.2192190
  72.9342630  78.2718840   6.5882360  72.9964570  78.9006550   7.9639760
  72.5894870  78.8496060  10.7411740  71.6397580  78.8159600  10.8556730
  72.7707880  79.7596170  10.5061510  71.9005120  78.0229540   3.1584600
  72.3964240  77.7900410   3.9433480  71.7021190  77.1841380   2.7422240
  57.7805660  72.4043260   8.7935640  58.4281850  71.8540640   8.3530800
  58.2007500  72.6586410   9.6151450  73.3292280  76.6590490   5.6922280
  73.2191560  76.5046530   6.6304550  74.0899870  76.1311430   5.4497690
  71.6758000  72.5984620  12.1505280  72.3130220  73.2118760  12.5164470
  71.8232890  72.6345280  11.2054510  57.5337660  72.5598930  11.5360960
  57.1852480  73.0162750  12.3019140  57.2025360  71.6656060  11.6183390
  65.0462480  73.7510810  15.0580380  64.9851370  74.3432640  15.8075790
  65.9862860  73.6436770  14.9130640  67.6837040  73.4080870  14.6972670
  68.2977450  73.7260160  14.0353750  68.2286600  72.9229460  15.3168530
  58.2058300  72.0875130  14.8111730  58.7541290  71.9063180  14.0477840
  58.2713610  71.2969240  15.3468040  68.4245080  71.9713010  11.0241960
  67.5504920  72.3048120  10.8214890  68.3155830  71.4986190  11.8493830
  69.3317060  74.1783880  12.4083680  69.0030420  73.3635640  12.0285410
  70.2799360  74.1353690  12.2849370  66.1719900  72.8882850   9.9634870
  65.3891690  73.3628350  10.2431630  65.8782830  71.9837680   9.8548050
  70.7240970  73.5905950   8.0083960  71.1649060  73.5351050   7.1605560
  70.4548560  74.5063960   8.0794140  72.5879540  73.2221190   6.0192780
  72.5267940  72.2782410   5.8723800  73.3671570  73.3301280   6.5646240
  57.5160310  73.1930330   2.4848590  58.2739670  73.3059210   1.9112620
  57.0537480  74.0299530   2.4392020  64.0574120  75.3069600   5.4750900
  63.2448630  74.9326490   5.1346780  64.5615760  74.5514680   5.7772090
  68.5599100  71.9712050   6.7133970  69.1628470  72.5432260   7.1882490
  67.8192090  72.5351490   6.4907870  71.7033700  72.3733610   1.9874250
  71.8984330  73.2717060   2.2541680  70.9163570  72.1420690   2.4807200
  62.0823300  73.4569520   4.0795950  61.4526040  72.7556830   4.2466080
  61.5428440  74.2173650   3.8629110  62.2078860  72.7353500  16.5148440
  61.9263130  73.2387100  15.7509260  62.5898560  71.9375250  16.1490570
  68.8094320  72.1507080  17.0928910  68.6959770  72.4701690  17.9880430
  69.6264060  72.5519590  16.7966190  67.7152470  61.3956060  81.3281100
  67.6346520  60.4810670  81.0572810  67.3016890  61.8923130  80.6220810
  65.8470510  63.1735080  83.2090370  65.0712610  62.6935520  83.4988940
  66.4983440  62.4940730  83.0346530  59.8636340  63.4854890  84.0866130
  59.0321220  63.2303600  84.4862640  60.4717320  63.5565660  84.8224050
  69.8677940  67.5795270  81.9889500  69.4059470  66.8082510  82.3176670
  70.6803490  67.6061340  82.4941950  59.8437600  67.5194980  84.2824150
  60.1465640  66.6292720  84.1034370  60.5881190  68.0765200  84.0546400
  58.2728290  58.4456780  77.8708520  57.3844990  58.7872750  77.7688400
  58.5569480  58.2457100  76.9789350  56.2361300  61.0462430  83.7548220
  56.8077410  60.2784630  83.7551860  56.2362840  61.3451190  82.8454830
  66.0941250  69.8653280  81.6093490  65.4752690  70.3210780  81.0387930
  66.9493030  70.0204740  81.2083190  65.2879500  65.8492270  83.2160530
  65.2187780  64.9082210  83.0549660  66.0499360  65.9393680  83.7883100
  57.4786170  56.4546790  85.5417150  57.2989010  55.5572540  85.8219910
  57.0766250  57.0018660  86.2164100  66.3184670  58.6562650  83.4429460
  66.6949490  57.7834530  83.3303130  66.2204180  58.9921350  82.5519900
  60.4489680  57.0288280  78.9046900  60.5556430  57.9292010  79.2115660
  59.5382040  56.9806250  78.6141550  70.1008790  56.1513090  80.3757800
  70.9218410  55.6609660  80.4183280  70.1342870  56.7410750  81.1289640
  58.0972840  58.9507290  84.1499490  58.7782950  59.2145660  84.7686890
  57.7820890  58.1108160  84.4837500  62.2897410  59.9974650  83.2372080
  62.7975630  60.4955620  83.8777100  62.8210650  59.2209850  83.0611440
  74.3908340  58.1679840  86.9401430  73.6860510  58.5561550  86.4216540
  74.6566260  58.8630130  87.5422360  60.5733510  54.6373210  87.5035500
  60.5751950  55.1545600  86.6981400  59.7437820  54.1603390  87.4805430
  66.9604600  64.7492520  79.0025400  66.3421870  65.2141970  78.4388120
  67.4727850  65.4420000  79.4194910  61.8236360  64.2768390  85.6809000
  61.4905740  64.9037310  86.3230070  62.0003040  64.8030270  84.9010670
  70.3370270  58.0913470  83.1485340  69.6325840  58.3798360  83.7288450
  70.6982430  58.9013580  82.7884900  60.2548840  56.3483170  85.5105950
  60.5965650  57.1925220  85.2159820  59.3164650  56.4966910  85.6271290
  61.0355460  66.2449190  87.4958180  61.6529460  66.9200270  87.2142630
  60.1748580  66.6537170  87.4045680  56.3287800  65.4349050  76.3765030
  55.9515780  65.9236150  75.6449930  56.5860870  66.1074330  77.0071560
  71.9533050  67.7088600  85.4112820  71.2696570  68.3787710  85.4029490
  72.4927340  67.9069250  84.6457680  73.4057190  57.5368260  83.5394550
  72.4582100  57.5707240  83.6709980  73.7307180  58.3507210  83.9243910
  63.9376730  53.8365440  81.8350540  64.2451710  53.2812330  81.1186040
  63.0077430  53.9709900  81.6523530  69.4891790  69.5532730  84.1258000
  69.5018950  69.1495020  83.2580260  68.9367010  70.3280020  84.0219430
  70.7837210  66.2748950  79.2148170  70.6733540  65.3323280  79.3397590
  70.7805460  66.6364590  80.1010930  68.8877230  64.4562570  85.4540610
  69.3046020  64.2422680  84.6194070  69.6117050  64.7135360  86.0249230
  66.3257490  61.9014270  78.5710660  65.3986770  61.8351650  78.7999130
  66.4782310  62.8394400  78.4565900  66.3126570  58.1731270  75.5677820
  65.3730240  58.3345230  75.6530280  66.6309830  58.8916950  75.0213810
  72.8339330  62.8549790  85.5456850  72.0057960  62.9242880  85.0706980
  73.4289810  63.4404100  85.0772680  70.3554780  63.4634570  79.0745910
  69.7367200  63.1254120  78.4272210  70.3379230  62.8194330  79.7825100
  69.7981340  59.6419110  86.4911720  69.3852520  60.4672820  86.7451710
  69.0657290  59.0564150  86.2988080  61.9314130  62.4279010  81.3530390
  61.5271130  61.7156260  80.8576290  62.0177250  62.0832250  82.2418430
  62.3995830  66.1146570  83.5169600  62.1024120  65.5092040  82.8377380
  63.3495650  66.1523880  83.4058960  60.6442750  59.2022220  85.1329430
  61.1957340  59.3117560  84.3582680  61.1586260  59.5759820  85.8484660
  70.4881440  69.6878440  87.1792700  70.0112000  70.4950630  86.9865310
  69.8043230  69.0356770  87.3318910  68.5319480  62.7021380  76.0818660
  68.9712760  61.8643810  75.9356480  69.2447900  63.3350780  76.1682800
  60.3185480  62.7241580  88.7434770  60.1793250  63.5964380  89.1122170
  59.4366840  62.3814390  88.5982710  66.6414860  67.6417450  80.0499900
  67.0810770  68.3841780  79.6355290  66.5801750  67.8844020  80.9738860
  72.1136620  53.9564190  74.3959700  71.8009280  54.0491020  75.2958770
  72.8749090  54.5345220  74.3457130  58.6318760  61.3223990  78.8537040
  58.5116360  62.0486080  78.2418310  58.3219650  60.5526900  78.3764950
  56.2704130  64.4939130  84.6605680  56.3484550  64.6287900  83.7161400
  56.8845810  63.7855020  84.8533800  57.5151760  66.1939320  81.0711860
  57.1079840  66.3353910  80.2165460  58.4064770  65.9099480  80.8683070
  67.3330640  70.3431230  87.9778910  67.8475310  70.2539240  88.7801340
  66.4899720  70.6890930  88.2706820  69.3085040  70.6286570  77.4062910
  69.1486180  70.3389510  78.3044740  69.1431750  69.8526700  76.8708140
  61.7873420  70.4085100  79.1834530  61.6115900  69.4920640  78.9702330
  60.9329160  70.7672390  79.4232330  69.0111170  68.1374130  75.9660910
  68.3176330  68.1351420  75.3063190  69.7534030  67.7133450  75.5355080
  68.5761100  69.7636840  80.0409400  69.0318050  68.9826220  80.3548020
  68.9153620  70.4743660  80.5850580  56.3263650  65.5353300  87.2000140
  56.4894690  65.0658660  86.3819510  56.7916100  65.0276860  87.8648980
  61.0982420  54.6659060  82.2360710  60.6550570  55.4468600  81.9045230
  61.6567410  54.9888950  82.9431650  65.3852230  57.5327580  87.8396030
  64.9231600  57.7410600  88.6515970  64.9830340  56.7186930  87.5366700
  64.2141240  54.2869760  77.1166540  63.5895420  54.2829630  77.8419850
  64.1271360  53.4200720  76.7202510  63.1358320  55.2106390  84.0950310
  63.4330650  56.1169220  84.0142330  63.6843880  54.7225170  83.4809880
  60.8896640  59.7892630  79.9641960  60.6637560  59.5729800  80.8688580
  60.1089170  60.2221090  79.6187930  68.1194400  59.7956000  78.5632610
  67.5203290  60.5191800  78.3796230  68.6674010  59.7332780  77.7809060
  66.7259270  58.4319540  80.5935890  67.1188840  58.7491740  79.7804580
  67.0876120  57.5531420  80.7080410  58.4606390  57.0991880  88.7836010
  58.0669780  57.9467090  88.9908790  57.7724790  56.4618250  88.9744650
  55.7623440  55.0220340  82.8166090  55.4736490  55.5923200  83.5291070
  56.5069200  54.5424790  83.1797320  55.9493670  58.9640460  74.0268810
  55.8668340  59.9071220  74.1683800  55.5976730  58.8215370  73.1481160
  67.3114410  61.0225290  84.6886670  66.5795530  61.5312100  85.0376770
  66.9138750  60.2055270  84.3875450  63.7491800  57.6979490  83.0939160
  63.7527860  57.2569440  82.2443700  64.6442920  58.0196820  83.2010980
  59.5994180  57.5805980  82.0533370  59.2594230  58.0581210  82.8100420
  58.8371500  57.1271100  81.6934470  63.8111950  58.6991570  76.0845920
  63.9324770  58.6578050  77.0331740  63.4260460  59.5615720  75.9292650
  67.7740320  56.4758970  84.1009610  67.7913060  56.9267620  84.9451460
  67.5255900  55.5764610  84.3143050  62.8233450  61.0092710  75.4829220
  62.2550350  60.5610960  74.8565130  63.5322450  61.3685490  74.9494370
  64.0499770  61.7581270  84.8404570  64.4169900  61.2839840  85.5865910
  63.8604830  62.6322840  85.1812910  56.9140260  56.5024960  80.9698040
  56.6287180  56.1380630  81.8076660  56.8519120  55.7705420  80.3561180
  61.8399140  60.7989910  87.1588780  61.5356210  61.6781890  87.3839140
  62.7945600  60.8589700  87.1946220  60.3680930  65.0050900  77.7555630
  59.5943190  64.4648520  77.5954350  61.0975560  64.4857510  77.4173390
  71.1268910  64.0016260  83.5482020  71.8468030  64.4971550  83.1578130
  70.9250730  63.3234150  82.9035890  66.5878850  55.3954220  77.6911410
  65.7743460  54.8967390  77.6156720  66.3940800  56.2352470  77.2747760
  69.3027240  59.7673870  75.9873570  70.1906860  60.0791100  75.8124910
  69.2732330  58.8946120  75.5954150  60.4118330  64.6731280  81.3934440
  60.9297000  63.8699540  81.3391330  59.9602350  64.6110420  82.2351270
  65.2987830  65.9397560  76.6661740  65.6403530  66.6839790  76.1705060
  64.4700540  66.2528680  77.0286570  57.8962870  61.6392650  88.3060140
  57.5377810  62.3046500  88.8933480  57.6017430  60.8076200  88.6772760
  71.5741510  61.0785710  75.4553430  71.4905230  61.5099930  74.6049870
  72.2935700  61.5384060  75.8880250  72.6515650  63.5353230  88.5323400
  71.9263840  64.1282010  88.3352790  73.1791110  63.5276770  87.7336770
  72.6028760  67.9327970  78.1835560  71.9604920  67.2783590  78.4579280
  72.2159420  68.3383060  77.4076230  68.1815240  65.2613400  82.0307250
  68.5339060  64.6641530  81.3708620  67.2977570  64.9357630  82.2015500
  64.2678520  66.0211090  79.4377660  64.9549650  66.5680300  79.8185250
  63.4810940  66.5651820  79.4727270  56.4070920  61.6383910  74.9294740
  57.2765770  61.9208710  75.2130660  55.9161240  62.4519780  74.8143550
  63.5705730  63.0257120  79.0503020  64.0268510  63.8362370  79.2763210
  63.2193940  62.7080260  79.8821510  65.8738340  68.5363460  86.2795320
  66.5180560  68.7422840  86.9568740  66.2367780  67.7751860  85.8266170
  59.4717510  53.3694770  79.5225540  59.3432140  53.3612670  80.4710460
  58.6479530  53.7077860  79.1716550  67.1470420  66.5395810  84.9972770
  67.7892650  65.8388970  85.1104940  67.6719770  67.3194250  84.8169660
  70.9926140  66.8244430  74.7211910  70.7663720  66.1074870  75.3136550
  70.6022340  66.5756870  73.8833660  68.9208040  67.3390710  88.2008830
  69.2564280  67.9257400  88.8786750  68.0008380  67.2083420  88.4306620
  56.7742170  70.8511290  75.4956370  57.1339810  71.4500630  74.8413640
  56.6334510  71.3971180  76.2691400  70.5742390  64.7416370  76.3826070
  70.2864090  65.2029060  77.1703950  71.3694560  64.2814140  76.6510290
  62.7910790  68.2342490  76.3130040  62.7820890  68.9672180  75.6974550
  61.8709150  67.9874070  76.4057000  58.3917430  63.4557380  77.0576800
  57.7845380  64.1956280  77.0672100  58.8666780  63.5456740  76.2315000
  67.9650220  57.6208200  86.7333690  68.3331040  56.8003410  87.0613260
  67.1048420  57.6810090  87.1489340  71.3312250  56.5765140  77.5421250
  70.7025410  56.6810810  76.8279480  70.8364170  56.7961920  78.3315130
  65.7770390  68.2970730  74.9755230  65.8782370  68.0934720  74.0457210
  64.8772130  68.0429010  75.1803010  63.2996280  58.8551090  78.9579130
  62.5912430  59.3237430  79.3992740  63.5840760  58.1973100  79.5924320
  64.9252210  60.2747790  86.9571660  65.4237460  60.7493610  87.6223510
  65.0675160  59.3511310  87.1641690  67.3311710  55.5801750  80.3974920
  67.2079490  55.5987880  79.4484430  68.2796270  55.6280690  80.5173320
  64.4188500  70.8157050  79.6702900  64.6730000  70.7778440  78.7482270
  63.4700980  70.6890380  79.6631150  61.5031300  57.1636170  76.3329840
  62.3521830  57.6006320  76.2670030  61.1362570  57.4756430  77.1601900
  72.1319070  56.4915750  87.8000050  71.6292670  57.2321150  88.1393860
  72.9475730  56.8799750  87.4836840  70.4241080  61.7348930  81.2461410
  69.4831220  61.7499160  81.4209100  70.7385150  60.9484890  81.6921710
  60.4022720  63.4168530  74.8065370  61.1685990  63.3049890  75.3690800
  60.4797410  62.7206500  74.1542140  59.0969480  60.8493600  75.4898260
  59.1773070  59.9021110  75.6015660  59.9889230  61.1800480  75.5958920
  72.4266660  68.9057780  82.9215670  72.5514080  69.7288950  83.3939480
  73.2932220  68.6948510  82.5739820  59.8984190  70.9988990  82.5932800
  60.6346670  70.4504450  82.8641370  60.2825110  71.8645000  82.4538790
  56.7829670  67.0662560  78.4674310  55.8569450  67.3083700  78.4579720
  57.2486100  67.8936820  78.3459060  63.0086500  70.1719300  74.4158370
  63.8015110  70.4608130  73.9640160  62.4890850  69.7411470  73.7370850
  72.0616670  69.3989430  75.8395110  71.7758180  68.9854570  75.0249290
  71.8636220  70.3277140  75.7195630  63.5263900  65.3922710  74.2800720
  63.4214540  64.7775060  75.0062100  63.3588120  64.8688600  73.4963730
  66.7666630  64.4542740  74.8842710  66.2176730  64.9012040  75.5285450
  67.3885890  63.9491990  75.4080380  62.4341750  63.4133660  76.7808010
  62.8558170  63.2473530  77.6239400  62.5592590  62.6033890  76.2863150
  64.9469390  62.4371270  74.0285110  65.4675050  61.7220290  73.6626260
  65.5937790  63.0757140  74.3285620  63.8502910  54.9165820  86.7003670
  63.4020210  54.9390080  85.8549220  63.2168110  54.5184840  87.2973970
  64.2562460  63.8120150  87.3216110  64.6750570  64.6552880  87.1492350
  63.3371090  63.9492190  87.0922890  68.9314260  62.0973520  87.2816460
  68.4049480  62.6216140  86.6781600  69.2745600  62.7300910  87.9126190
  61.3300650  59.4866890  73.7266170  61.1289710  58.6234250  74.0879510
  61.1592700  59.4000250  72.7887770  62.1069880  70.1173160  88.4373840
  61.5690970  70.8419220  88.1182540  62.3603840  69.6403500  87.6471180
  68.8088960  54.2975120  76.2553050  69.0891250  53.4543020  76.6112470
  68.0354690  54.5298230  76.7691800  60.1283450  56.5867510  73.7144050
  60.4309350  56.5934940  72.8063200  60.8678040  56.2365370  74.2111710
  64.9632090  71.3524370  88.6960490  64.8890790  72.2559510  89.0032860
  64.0610930  71.0336270  88.6682560  63.3468380  55.5302130  74.7000250
  62.9990380  54.8526120  74.1202700  63.5481150  55.0691640  75.5143640
  65.5117420  70.5182880  76.3186850  66.4068210  70.8567850  76.3405610
  65.5435050  69.7962290  75.6911130  59.1513580  65.8909930  74.5473850
  59.5888450  66.4339600  75.2031430  59.6361310  65.0656880  74.5570190
  56.3659380  68.6798960  81.9994110  56.6962390  67.8120020  81.7672750
  56.7950380  68.8857480  82.8299070  60.9621300  67.0107970  79.6596080
  60.6616840  66.8872940  80.5599990  60.8558790  66.1516560  79.2511810
  56.8549590  69.5469550  84.7375740  56.4180580  69.7270350  85.5699890
  57.4227270  70.3044170  84.5957460  73.7313220  66.7904370  74.3622760
  72.9006180  66.8581020  74.8329990  73.9085050  67.6808490  74.0589620
  73.1869680  63.5351850  76.8656960  73.9488590  64.1048500  76.9716650
  73.2024050  62.9679050  77.6365270  56.6874020  62.0589780  81.0964620
  56.0322860  61.7901420  80.4524320  57.5251970  61.9494260  80.6466600
  74.1929650  64.3901950  81.7098890  74.5638480  63.6069270  81.3034860
  74.8331580  65.0791050  81.5316190  71.1763410  65.7738530  87.1229210
  70.3623250  66.2035690  87.3855000  71.5837610  66.3856940  86.5098260
  73.2388850  63.8286220  74.0229480  73.5137690  64.7365100  73.8948700
  73.0499590  63.7648750  74.9591470  69.6364460  56.8531070  75.3183110
  70.0549340  56.6662050  74.4779770  69.3300520  56.0010120  75.6286040
  73.1354190  61.7655210  79.0158910  72.7597790  60.9983140  78.5840200
  72.4057310  62.1477910  79.5033840  57.7249950  62.4442350  85.6367960
  58.0922990  62.3569750  86.5163980  57.1560770  61.6808900  85.5374820
  72.5253810  60.9126730  88.6498430  72.2939900  60.6839480  87.7496380
  72.7858360  61.8326280  88.6043320  55.9012100  59.2688710  77.0389950
  54.9976180  59.5318910  76.8641610  56.3852720  59.5399880  76.2589910
  72.4105150  59.9912700  82.3166150  72.9342630  59.4975350  81.6856320
  72.9964570  60.1263060  83.0613720  72.5894870  60.0752570  85.8385700
  71.6397580  60.0416110  85.9530690  72.7707880  60.9852680  85.6035470
  58.4439310  58.3254250  74.9484330  59.1531010  57.9037470  74.4631610
  57.7279250  58.3929480  74.3167680  58.0913470  54.3793580  73.9886980
  58.8141600  54.9202520  74.3068200  58.3637990  54.1057000  73.1128520
  71.9005120  59.2486050  78.2558560  72.3964240  59.0156920  79.0407440
  71.7021190  58.4097890  77.8396200  57.7805660  53.6299770  83.8909600
  58.4281850  53.0797150  83.4504760  58.2007500  53.8842920  84.7125410
  73.3292280  57.8847000  80.7896240  73.2191560  57.7303040  81.7278510
  74.0899870  57.3567940  80.5471650  71.6758000  53.8241130  87.2479240
  72.3130220  54.4375270  87.6138430  71.8232890  53.8601790  86.3028470
  74.2182550  55.7154920  74.0302380  75.1431860  55.5836100  73.8220670
  74.1958340  55.7947740  74.9838830  74.2921040  56.4865580  76.6559090
  73.4972540  56.4210700  77.1852000  74.4964320  57.4216220  76.6444440
  71.2339460  70.5257130  80.6497480  71.8298530  70.2041700  79.9731900
  71.4917610  70.0528950  81.4410750  57.5337660  53.7855440  86.6334920
  57.1852480  54.2419260  87.3993100  57.2025360  52.8912570  86.7157350
  62.8408060  68.5134630  86.3997830  62.5999420  68.7809190  85.5128350
  63.7810700  68.6840360  86.4548690  74.1012220  70.5329010  87.2008470
  73.6070500  70.9297880  86.4835600  73.4925510  69.9078220  87.5945750
  58.9790060  69.9037290  87.9185890  58.3850380  69.7721990  88.6575930
  58.9713900  69.0675430  87.4527990  68.4245080  53.1969520  86.1215920
  67.5504920  53.5304630  85.9188850  68.3155830  52.7242700  86.9467790
  69.3317060  55.4040390  87.5057640  69.0030420  54.5892150  87.1259370
  70.2799360  55.3610200  87.3823330  71.7851670  71.1752430  84.4795210
  71.3254640  71.9268240  84.1053230  71.1564130  70.4558900  84.4210010
  58.6102290  67.2695670  86.8693930  57.8836350  66.6500960  86.8019880
  58.6711440  67.6636280  85.9992010  62.2147390  69.4840670  83.6543340
  62.7312410  68.8728030  83.1291600  62.8644770  69.9869450  84.1454350
  64.9542890  70.3749160  84.4812320  65.2420700  70.1203460  83.6045330
  65.4666110  69.8226520  85.0717890  66.1719900  54.1139360  85.0608830
  65.3891690  54.5884860  85.3405590  65.8782830  53.2094190  84.9522010
  70.7240970  54.8162460  83.1057920  71.1649060  54.7607560  82.2579520
  70.4548560  55.7320470  83.1768100  72.5879540  54.4477700  81.1166740
  72.5267940  53.5038920  80.9697760  73.3671570  54.5557790  81.6620200
  56.8932290  70.5870060  80.0790690  56.7254330  69.9540740  80.7772580
  56.0266800  70.7929460  79.7284880  57.5160310  54.4186840  77.5822550
  58.2739670  54.5315720  77.0086580  57.0537480  55.2556040  77.5365980
  64.0574120  56.5326110  80.5724860  63.2448630  56.1583000  80.2320740
  64.5615760  55.7771190  80.8746050  68.5599100  53.1968560  81.8107930
  69.1628470  53.7688770  82.2856450  67.8192090  53.7608000  81.5881830
  71.7033700  53.5990120  77.0848210  71.8984330  54.4973570  77.3515640
  70.9163570  53.3677200  77.5781160  58.4994990  69.2803290  77.5240830
  57.9742610  69.6611320  76.8202790  58.4239570  69.9054060  78.2450540
  59.8885460  54.9450890  76.1224520  60.4178220  54.1580690  75.9932470
  60.5213780  55.6242080  76.3560050  62.0823300  54.6826030  79.1769910
  61.4526040  53.9813340  79.3440040  61.5428440  55.4430160  78.9603070
  73.2560310  70.8390830  78.8454770  73.4312500  70.1528570  78.2015690
  72.5581880  71.3637880  78.4531440  61.0987960  71.2285670  76.3990080
  61.8306780  70.9444950  75.8513970  61.3581630  70.9898950  77.2889460
  60.2602750  67.3450400  76.4036410  59.6311630  67.8135500  76.9522240
  60.3750580  66.4999620  76.8382600  67.7152470  61.3956060  62.5537610
  67.6346520  60.4810670  62.2829320  67.3016890  61.8923130  61.8477320
  65.8470510  63.1735080  64.4346880  65.0712610  62.6935520  64.7245450
  66.4983440  62.4940730  64.2603040  59.8636340  63.4854890  65.3122640
  59.0321220  63.2303600  65.7119150  60.4717320  63.5565660  66.0480560
  69.8677940  67.5795270  63.2146010  69.4059470  66.8082510  63.5433180
  70.6803490  67.6061340  63.7198460  59.8437600  67.5194980  65.5080660
  60.1465640  66.6292720  65.3290880  60.5881190  68.0765200  65.2802910
  66.0941250  69.8653280  62.8350000  65.4752690  70.3210780  62.2644440
  66.9493030  70.0204740  62.4339700  65.2879500  65.8492270  64.4417040
  65.2187780  64.9082210  64.2806170  66.0499360  65.9393680  65.0139610
  74.3908340  58.1679840  68.1657940  73.6860510  58.5561550  67.6473050
  74.6566260  58.8630130  68.7678870  66.9604600  64.7492520  60.2281910
  66.3421870  65.2141970  59.6644630  67.4727850  65.4420000  60.6451420
  61.8236360  64.2768390  66.9065510  61.4905740  64.9037310  67.5486580
  62.0003040  64.8030270  66.1267180  61.0355460  66.2449190  68.7214690
  61.6529460  66.9200270  68.4399140  60.1748580  66.6537170  68.6302190
  71.9533050  67.7088600  66.6369330  71.2696570  68.3787710  66.6286000
  72.4927340  67.9069250  65.8714190  73.4057190  57.5368260  64.7651060
  72.4582100  57.5707240  64.8966490  73.7307180  58.3507210  65.1500420
  69.4891790  69.5532730  65.3514510  69.5018950  69.1495020  64.4836770
  68.9367010  70.3280020  65.2475940  70.7837210  66.2748950  60.4404680
  70.6733540  65.3323280  60.5654100  70.7805460  66.6364590  61.3267440
  68.8877230  64.4562570  66.6797120  69.3046020  64.2422680  65.8450580
  69.6117050  64.7135360  67.2505740  72.8339330  62.8549790  66.7713360
  72.0057960  62.9242880  66.2963490  73.4289810  63.4404100  66.3029190
  69.7981340  59.6419110  67.7168230  69.3852520  60.4672820  67.9708220
  69.0657290  59.0564150  67.5244590  61.9314130  62.4279010  62.5786900
  61.5271130  61.7156260  62.0832800  62.0177250  62.0832250  63.4674940
  62.3995830  66.1146570  64.7426110  62.1024120  65.5092040  64.0633890
  63.3495650  66.1523880  64.6315470  70.4881440  69.6878440  68.4049210
  70.0112000  70.4950630  68.2121820  69.8043230  69.0356770  68.5575420
  61.4914260  65.8528260  71.3933910  60.5942790  66.0768230  71.6407310
  61.5167130  65.9763200  70.4445310  60.3185480  62.7241580  69.9691280
  60.1793250  63.5964380  70.3378680  59.4366840  62.3814390  69.8239220
  66.6414860  67.6417450  61.2756410  67.0810770  68.3841780  60.8611800
  66.5801750  67.8844020  62.1995370  62.1165830  68.6663280  72.1776430
  62.0881260  69.0706230  71.3104860  61.9530800  67.7373640  72.0148030
  74.0680650  69.4490380  73.4740600  74.5440370  69.9273270  74.1529680
  74.6887810  69.3807870  72.7486100  56.2704130  64.4939130  65.8862190
  56.3484550  64.6287900  64.9417910  56.8845810  63.7855020  66.0790310
  57.5151760  66.1939320  62.2968370  57.1079840  66.3353910  61.4421970
  58.4064770  65.9099480  62.0939580  73.4713900  66.6403230  70.6340610
  73.5976960  66.4015110  69.7157790  73.5135280  65.8087770  71.1062690
  67.3330640  70.3431230  69.2035420  67.8475310  70.2539240  70.0057850
  66.4899720  70.6890930  69.4963330  69.3085040  70.6286570  58.6319420
  69.1486180  70.3389510  59.5301250  69.1431750  69.8526700  58.0964650
  69.0111170  68.1374130  57.1917420  68.3176330  68.1351420  56.5319700
  69.7534030  67.7133450  56.7611590  68.5761100  69.7636840  61.2665910
  69.0318050  68.9826220  61.5804530  68.9153620  70.4743660  61.8107090
  73.3237910  58.6935690  71.5990350  72.7082180  59.2015360  71.0705810
  73.0034330  57.7934020  71.5416290  56.3263650  65.5353300  68.4256650
  56.4894690  65.0658660  67.6076020  56.7916100  65.0276860  69.0905490
  65.3852230  57.5327580  69.0652540  64.9231600  57.7410600  69.8772480
  64.9830340  56.7186930  68.7623210  70.3856740  58.7536530  70.1949200
  69.5350330  58.4542280  70.5158270  70.2258530  58.9978540  69.2833020
  67.4806450  60.2538280  72.2947990  67.8059860  59.4202030  71.9550220
  68.2686780  60.7766800  72.4426320  63.3295850  60.6878210  71.8558740
  63.2339450  59.7472940  71.7059140  64.1727830  60.9093280  71.4606810
  65.0351440  57.1826850  73.0789260  64.3449760  56.9899050  73.7135350
  65.7783740  57.4661490  73.6113560  67.3114410  61.0225290  65.9143180
  66.5795530  61.5312100  66.2633280  66.9138750  60.2055270  65.6131960
  71.2011070  53.8891150  71.1652500  71.5256840  53.1580810  71.6910480
  71.2367580  53.5704790  70.2633490  57.9002630  64.9104730  70.5852460
  57.5157420  64.2698400  71.1835420  58.2114820  65.6140850  71.1547190
  64.0499770  61.7581270  66.0661080  64.4169900  61.2839840  66.8122420
  63.8604830  62.6322840  66.4069420  61.8399140  60.7989910  68.3845290
  61.5356210  61.6781890  68.6095650  62.7945600  60.8589700  68.4202730
  71.1268910  64.0016260  64.7738530  71.8468030  64.4971550  64.3834640
  70.9250730  63.3234150  64.1292400  66.5087710  64.0725320  70.6607530
  66.4425020  63.1520990  70.4065120  65.8792850  64.1700760  71.3752170
  57.8962870  61.6392650  69.5316650  57.5377810  62.3046500  70.1189990
  57.6017430  60.8076200  69.9029270  61.0975990  62.0976890  72.4156200
  60.7976130  62.2434070  71.5184020  61.8687230  61.5382180  72.3229590
  66.4404440  66.8945890  70.4111330  66.4548980  65.9626850  70.1930240
  65.7329540  66.9805650  71.0501100  72.6515650  63.5353230  69.7579910
  71.9263840  64.1282010  69.5609300  73.1791110  63.5276770  68.9593280
  72.6028760  67.9327970  59.4092070  71.9604920  67.2783590  59.6835790
  72.2159420  68.3383060  58.6332740  68.1815240  65.2613400  63.2563760
  68.5339060  64.6641530  62.5965130  67.2977570  64.9357630  63.4272010
  65.8738340  68.5363460  67.5051830  66.5180560  68.7422840  68.1825250
  66.2367780  67.7751860  67.0522680  67.1470420  66.5395810  66.2229280
  67.7892650  65.8388970  66.3361450  67.6719770  67.3194250  66.0426170
  70.9926140  66.8244430  55.9468420  70.7663720  66.1074870  56.5393060
  70.6022340  66.5756870  55.1090170  68.9208040  67.3390710  69.4265340
  69.2564280  67.9257400  70.1043260  68.0008380  67.2083420  69.6563130
  56.7742170  70.8511290  56.7212880  57.1339810  71.4500630  56.0670150
  56.6334510  71.3971180  57.4947910  56.4711440  55.1285890  70.2088750
  55.7569960  55.3282810  70.8141360  56.8906480  54.3525460  70.5803550
  70.5742390  64.7416370  57.6082580  70.2864090  65.2029060  58.3960460
  71.3694560  64.2814140  57.8766800  56.7584030  69.1166150  71.1955280
  56.8675150  68.1760890  71.0550670  56.1064590  69.3820900  70.5469010
  64.7496620  67.3882040  72.5953400  64.4293490  66.6691280  73.1399090
  64.0754980  68.0637110  72.6689460  67.9650220  57.6208200  67.9590200
  68.3331040  56.8003410  68.2869770  67.1048420  57.6810090  68.3745850
  65.7770390  68.2970730  56.2011740  65.8782370  68.0934720  55.2713720
  64.8772130  68.0429010  56.4059520  64.9252210  60.2747790  68.1828170
  65.4237460  60.7493610  68.8480020  65.0675160  59.3511310  68.3898200
  64.4188500  70.8157050  60.8959410  64.6730000  70.7778440  59.9738780
  63.4700980  70.6890380  60.8887660  72.1319070  56.4915750  69.0256560
  71.6292670  57.2321150  69.3650370  72.9475730  56.8799750  68.7093350
  72.4266660  68.9057780  64.1472180  72.5514080  69.7288950  64.6195990
  73.2932220  68.6948510  63.7996330  59.8984190  70.9988990  63.8189310
  60.6346670  70.4504450  64.0897880  60.2825110  71.8645000  63.6795300
  56.7829670  67.0662560  59.6930820  55.8569450  67.3083700  59.6836230
  57.2486100  67.8936820  59.5715570  58.9042470  70.1835060  73.0074890
  59.7055200  70.5047110  73.4210290  58.3894290  69.8230640  73.7294800
  63.0086500  70.1719300  55.6414880  63.8015110  70.4608130  55.1896670
  62.4890850  69.7411470  54.9627360  67.7407100  66.2914930  72.9550300
  67.1345260  66.3146530  72.2146050  67.4361210  65.5597970  73.4917550
  69.1707470  70.0195220  71.5659710  70.1229220  69.9353240  71.5159950
  69.0235690  70.6836930  72.2393500  72.0616670  69.3989430  57.0651620
  71.7758180  68.9854570  56.2505800  71.8636220  70.3277140  56.9452140
  56.6240280  62.6708520  71.9510940  57.1279300  62.0915800  72.5227170
  55.8847700  62.9548750  72.4887310  63.6778220  64.0779510  71.4846460
  62.9123890  64.6464510  71.4001130  63.8594180  63.7855720  70.5914690
  70.8201570  65.8084840  72.0421480  71.5611040  66.1460600  71.5388940
  70.0574250  65.9776900  71.4891250  58.6563360  60.8138110  72.8461010
  58.6968700  60.5151980  73.7546240  59.5108860  61.2145720  72.6868530
  60.5969170  59.3930210  70.8135500  60.0665630  58.9021160  70.1858840
  61.2657240  59.8214410  70.2793430  69.4947230  63.8599670  70.5776690
  69.9088250  64.0144750  71.4267110  68.5598230  63.9854890  70.7402470
  69.9669400  61.1995830  72.5815840  70.5490170  60.4448150  72.4936320
  70.1431170  61.7303270  71.8047320  61.0841470  56.3592580  70.8932790
  60.9898340  55.7413330  70.1683660  60.5038860  57.0858870  70.6662700
  64.2562460  63.8120150  68.5472620  64.6750570  64.6552880  68.3748860
  63.3371090  63.9492190  68.3179400  66.5926360  61.5436330  69.9310460
  66.7122570  60.9477470  70.6705300  67.4520360  61.5806020  69.5111760
  68.9314260  62.0973520  68.5072970  68.4049480  62.6216140  67.9038110
  69.2745600  62.7300910  69.1382700  62.1069880  70.1173160  69.6630350
  61.5690970  70.8419220  69.3439050  62.3603840  69.6403500  68.8727690
  63.3595130  58.0857680  71.1886280  63.9494820  57.7773530  71.8764100
  62.5415370  57.6137430  71.3446180  68.1788560  57.7023490  71.4219300
  67.4904080  57.0405030  71.3569290  68.8994580  57.2561760  71.8667760
  64.9632090  71.3524370  69.9217000  64.8890790  72.2559510  70.2289370
  64.0610930  71.0336270  69.8939070  65.5117420  70.5182880  57.5443360
  66.4068210  70.8567850  57.5662120  65.5435050  69.7962290  56.9167640
  56.3659380  68.6798960  63.2250620  56.6962390  67.8120020  62.9929260
  56.7950380  68.8857480  64.0555580  56.8549590  69.5469550  65.9632250
  56.4180580  69.7270350  66.7956400  57.4227270  70.3044170  65.8213970
  72.4911770  69.0486550  70.2509560  71.8913760  69.1079110  69.5073480
  72.6205670  68.1091530  70.3806410  73.7313220  66.7904370  55.5879270
  72.9006180  66.8581020  56.0586500  73.9085050  67.6808490  55.2846130
  56.6874020  62.0589780  62.3221130  56.0322860  61.7901420  61.6780830
  57.5251970  61.9494260  61.8723110  74.1929650  64.3901950  62.9355400
  74.5638480  63.6069270  62.5291370  74.8331580  65.0791050  62.7572700
  71.1763410  65.7738530  68.3485720  70.3623250  66.2035690  68.6111510
  71.5837610  66.3856940  67.7354770  73.2388850  63.8286220  55.2485990
  73.5137690  64.7365100  55.1205210  73.0499590  63.7648750  56.1847980
  57.7249950  62.4442350  66.8624470  58.0922990  62.3569750  67.7420490
  57.1560770  61.6808900  66.7631330  72.5253810  60.9126730  69.8754940
  72.2939900  60.6839480  68.9752890  72.7858360  61.8326280  69.8299830
  57.2765950  59.3551440  70.7682890  56.3822000  59.3218200  71.1076600
  57.8163500  59.5538230  71.5334140  70.9641880  56.1383160  72.6534640
  71.8412060  56.1466560  73.0368640  70.9762720  55.4014000  72.0426990
  72.4105150  59.9912700  63.5422660  72.9342630  59.4975350  62.9112830
  72.9964570  60.1263060  64.2870230  72.5894870  60.0752570  67.0642210
  71.6397580  60.0416110  67.1787200  72.7707880  60.9852680  66.8291980
  71.6758000  53.8241130  68.4735750  72.3130220  54.4375270  68.8394940
  71.8232890  53.8601790  67.5284980  71.2339460  70.5257130  61.8753990
  71.8298530  70.2041700  61.1988410  71.4917610  70.0528950  62.6667260
  59.1402030  66.9575040  72.0244620  59.0971660  66.5867950  72.9059080
  59.2713040  67.8952610  72.1646440  62.8408060  68.5134630  67.6254340
  62.5999420  68.7809190  66.7384860  63.7810700  68.6840360  67.6805200
  65.0462480  54.9767320  71.3810850  64.9851370  55.5689150  72.1306260
  65.9862860  54.8693280  71.2361110  67.6837040  54.6337380  71.0203140
  68.2977450  54.9516670  70.3584220  68.2286600  54.1485970  71.6399000
  74.1012220  70.5329010  68.4264980  73.6070500  70.9297880  67.7092110
  73.4925510  69.9078220  68.8202260  58.2058300  53.3131640  71.1342200
  58.7541290  53.1319690  70.3708310  58.2713610  52.5225750  71.6698510
  58.9790060  69.9037290  69.1442400  58.3850380  69.7721990  69.8832440
  58.9713900  69.0675430  68.6784500  68.4245080  53.1969520  67.3472430
  67.5504920  53.5304630  67.1445360  68.3155830  52.7242700  68.1724300
  69.3317060  55.4040390  68.7314150  69.0030420  54.5892150  68.3515880
  70.2799360  55.3610200  68.6079840  71.7851670  71.1752430  65.7051720
  71.3254640  71.9268240  65.3309740  71.1564130  70.4558900  65.6466520
  58.6102290  67.2695670  68.0950440  57.8836350  66.6500960  68.0276390
  58.6711440  67.6636280  67.2248520  62.2147390  69.4840670  64.8799850
  62.7312410  68.8728030  64.3548110  62.8644770  69.9869450  65.3710860
  64.9542890  70.3749160  65.7068830  65.2420700  70.1203460  64.8301840
  65.4666110  69.8226520  66.2974400  56.8932290  70.5870060  61.3047200
  56.7254330  69.9540740  62.0029090  56.0266800  70.7929460  60.9541390
  58.4994990  69.2803290  58.7497340  57.9742610  69.6611320  58.0459300
  58.4239570  69.9054060  59.4707050  65.0215250  71.2965260  73.0737030
  65.9482560  71.0609530  73.1172990  65.0065680  72.1237260  72.5923060
  73.2560310  70.8390830  60.0711280  73.4312500  70.1528570  59.4272200
  72.5581880  71.3637880  59.6787950  62.2078860  53.9610010  72.8378910
  61.9263130  54.4643610  72.0739730  62.5898560  53.1631760  72.4721040
  61.0987960  71.2285670  57.6246590  61.8306780  70.9444950  57.0770480
  61.3581630  70.9898950  58.5145970  68.8094320  53.3763590  73.4159380
  68.6959770  53.6958200  74.3110900  69.6264060  53.7776100  73.1196660
  71.5892810  70.5235120  72.8978070  72.3818130  70.0284350  72.6904030
  71.8825960  71.2025260  73.5053680  62.1165830  68.6663280  53.4032940
  62.0881260  69.0706230  52.5361370  61.9530800  67.7373640  53.2404540
  74.0680650  69.4490380  54.6997110  74.5440370  69.9273270  55.3786190
  74.6887810  69.3807870  53.9742610  67.3330640  70.3431230  50.4291930
  67.8475310  70.2539240  51.2314360  66.4899720  70.6890930  50.7219840
  58.9042470  70.1835060  54.2331400  59.7055200  70.5047110  54.6466800
  58.3894290  69.8230640  54.9551310  69.1707470  70.0195220  52.7916220
  70.1229220  69.9353240  52.7416460  69.0235690  70.6836930  53.4650010
  70.8201570  65.8084840  53.2677990  71.5611040  66.1460600  52.7645450
  70.0574250  65.9776900  52.7147760  64.9632090  71.3524370  51.1473510
  64.8890790  72.2559510  51.4545880  64.0610930  71.0336270  51.1195580
  56.8549590  69.5469550  47.1888760  56.4180580  69.7270350  48.0212910
  57.4227270  70.3044170  47.0470480  56.8932290  70.5870060  42.5303710
  56.7254330  69.9540740  43.2285600  56.0266800  70.7929460  42.1797900
  65.0215250  71.2965260  54.2993540  65.9482560  71.0609530  54.3429500
  65.0065680  72.1237260  53.8179570  71.5892810  70.5235120  54.1234580
  72.3818130  70.0284350  53.9160540  71.8825960  71.2025260  54.7310190
  56.3287800  65.4349050  20.0534560  55.9515780  65.9236150  19.3219460
  56.5860870  66.1074330  20.6841090  66.3126570  58.1731270  19.2447350
  65.3730240  58.3345230  19.3299810  66.6309830  58.8916950  18.6983340
  68.5319480  62.7021380  19.7588190  68.9712760  61.8643810  19.6126010
  69.2447900  63.3350780  19.8452330  72.1136620  53.9564190  18.0729230
  71.8009280  54.0491020  18.9728300  72.8749090  54.5345220  18.0226660
  69.3085040  70.6286570  21.0832440  69.1486180  70.3389510  21.9814270
  69.1431750  69.8526700  20.5477670  69.0111170  68.1374130  19.6430440
  68.3176330  68.1351420  18.9832720  69.7534030  67.7133450  19.2124610
  55.9493670  58.9640460  17.7038340  55.8668340  59.9071220  17.8453330
  55.5976730  58.8215370  16.8250690  69.3027240  59.7673870  19.6643100
  70.1906860  60.0791100  19.4894440  69.2732330  58.8946120  19.2723680
  71.5741510  61.0785710  19.1322960  71.4905230  61.5099930  18.2819400
  72.2935700  61.5384060  19.5649780  72.6028760  67.9327970  21.8605090
  71.9604920  67.2783590  22.1348810  72.2159420  68.3383060  21.0845760
  70.9926140  66.8244430  18.3981440  70.7663720  66.1074870  18.9906080
  70.6022340  66.5756870  17.5603190  56.7742170  70.8511290  19.1725900
  57.1339810  71.4500630  18.5183170  56.6334510  71.3971180  19.9460930
  70.5742390  64.7416370  20.0595600  70.2864090  65.2029060  20.8473480
  71.3694560  64.2814140  20.3279820  62.7910790  68.2342490  19.9899570
  62.7820890  68.9672180  19.3744080  61.8709150  67.9874070  20.0826530
  65.7770390  68.2970730  18.6524760  65.8782370  68.0934720  17.7226740
  64.8772130  68.0429010  18.8572540  60.4022720  63.4168530  18.4834900
  61.1685990  63.3049890  19.0460330  60.4797410  62.7206500  17.8311670
  59.8984190  70.9988990  26.2702330  60.6346670  70.4504450  26.5410900
  60.2825110  71.8645000  26.1308320  56.7829670  67.0662560  22.1443840
  55.8569450  67.3083700  22.1349250  57.2486100  67.8936820  22.0228590
  63.0086500  70.1719300  18.0927900  63.8015110  70.4608130  17.6409690
  62.4890850  69.7411470  17.4140380  72.0616670  69.3989430  19.5164640
  71.7758180  68.9854570  18.7018820  71.8636220  70.3277140  19.3965160
  63.5263900  65.3922710  17.9570250  63.4214540  64.7775060  18.6831630
  63.3588120  64.8688600  17.1733260  66.7666630  64.4542740  18.5612240
  66.2176730  64.9012040  19.2054980  67.3885890  63.9491990  19.0849910
  64.9469390  62.4371270  17.7054640  65.4675050  61.7220290  17.3395790
  65.5937790  63.0757140  18.0055150  61.3300650  59.4866890  17.4035700
  61.1289710  58.6234250  17.7649040  61.1592700  59.4000250  16.4657300
  68.8088960  54.2975120  19.9322580  69.0891250  53.4543020  20.2882000
  68.0354690  54.5298230  20.4461330  60.1283450  56.5867510  17.3913580
  60.4309350  56.5934940  16.4832730  60.8678040  56.2365370  17.8881240
  63.3468380  55.5302130  18.3769780  62.9990380  54.8526120  17.7972230
  63.5481150  55.0691640  19.1913170  65.5117420  70.5182880  19.9956380
  66.4068210  70.8567850  20.0175140  65.5435050  69.7962290  19.3680660
  59.1513580  65.8909930  18.2243380  59.5888450  66.4339600  18.8800960
  59.6361310  65.0656880  18.2339720  56.3659380  68.6798960  25.6763640
  56.6962390  67.8120020  25.4442280  56.7950380  68.8857480  26.5068600
  56.8549590  69.5469550  28.4145270  56.4180580  69.7270350  29.2469420
  57.4227270  70.3044170  28.2726990  73.7313220  66.7904370  18.0392290
  72.9006180  66.8581020  18.5099520  73.9085050  67.6808490  17.7359150
  73.1869680  63.5351850  20.5426490  73.9488590  64.1048500  20.6486180
  73.2024050  62.9679050  21.3134800  73.2388850  63.8286220  17.6999010
  73.5137690  64.7365100  17.5718230  73.0499590  63.7648750  18.6361000
  69.6364460  56.8531070  18.9952640  70.0549340  56.6662050  18.1549300
  69.3300520  56.0010120  19.3055570  58.0913470  54.3793580  17.6656510
  58.8141600  54.9202520  17.9837730  58.3637990  54.1057000  16.7898050
  74.2182550  55.7154920  17.7071910  75.1431860  55.5836100  17.4990200
  74.1958340  55.7947740  18.6608360  56.8932290  70.5870060  23.7560220
  56.7254330  69.9540740  24.4542110  56.0266800  70.7929460  23.4054410
  71.7033700  53.5990120  20.7617740  71.8984330  54.4973570  21.0285170
  70.9163570  53.3677200  21.2550690  58.4994990  69.2803290  21.2010360
  57.9742610  69.6611320  20.4972320  58.4239570  69.9054060  21.9220070
  73.2560310  70.8390830  22.5224300  73.4312500  70.1528570  21.8785220
  72.5581880  71.3637880  22.1300970  61.0987960  71.2285670  20.0759610
  61.8306780  70.9444950  19.5283500  61.3581630  70.9898950  20.9658990
  60.2602750  67.3450400  20.0805940  59.6311630  67.8135500  20.6291770
  60.3750580  66.4999620  20.5152130  67.7152470  61.3956060   6.2307140
  67.6346520  60.4810670   5.9598850  67.3016890  61.8923130   5.5246850
  65.8470510  63.1735080   8.1116410  65.0712610  62.6935520   8.4014980
  66.4983440  62.4940730   7.9372570  59.8636340  63.4854890   8.9892170
  59.0321220  63.2303600   9.3888680  60.4717320  63.5565660   9.7250090
  69.8677940  67.5795270   6.8915540  69.4059470  66.8082510   7.2202710
  70.6803490  67.6061340   7.3967990  59.8437600  67.5194980   9.1850190
  60.1465640  66.6292720   9.0060410  60.5881190  68.0765200   8.9572440
  58.2728290  58.4456780   2.7734560  57.3844990  58.7872750   2.6714440
  58.5569480  58.2457100   1.8815390  56.2361300  61.0462430   8.6574260
  56.8077410  60.2784630   8.6577900  56.2362840  61.3451190   7.7480870
  66.0941250  69.8653280   6.5119530  65.4752690  70.3210780   5.9413970
  66.9493030  70.0204740   6.1109230  65.2879500  65.8492270   8.1186570
  65.2187780  64.9082210   7.9575700  66.0499360  65.9393680   8.6909140
  57.4786170  56.4546790  10.4443190  57.2989010  55.5572540  10.7245950
  57.0766250  57.0018660  11.1190140  66.3184670  58.6562650   8.3455500
  66.6949490  57.7834530   8.2329170  66.2204180  58.9921350   7.4545940
  60.4489680  57.0288280   3.8072940  60.5556430  57.9292010   4.1141700
  59.5382040  56.9806250   3.5167590  70.1008790  56.1513090   5.2783840
  70.9218410  55.6609660   5.3209320  70.1342870  56.7410750   6.0315680
  58.0972840  58.9507290   9.0525530  58.7782950  59.2145660   9.6712930
  57.7820890  58.1108160   9.3863540  62.2897410  59.9974650   8.1398120
  62.7975630  60.4955620   8.7803140  62.8210650  59.2209850   7.9637480
  74.3908340  58.1679840  11.8427470  73.6860510  58.5561550  11.3242580
  74.6566260  58.8630130  12.4448400  60.5733510  54.6373210  12.4061540
  60.5751950  55.1545600  11.6007440  59.7437820  54.1603390  12.3831470
  66.9604600  64.7492520   3.9051440  66.3421870  65.2141970   3.3414160
  67.4727850  65.4420000   4.3220950  61.8236360  64.2768390  10.5835040
  61.4905740  64.9037310  11.2256110  62.0003040  64.8030270   9.8036710
  70.3370270  58.0913470   8.0511380  69.6325840  58.3798360   8.6314490
  70.6982430  58.9013580   7.6910940  60.2548840  56.3483170  10.4131990
  60.5965650  57.1925220  10.1185860  59.3164650  56.4966910  10.5297330
  61.0355460  66.2449190  12.3984220  61.6529460  66.9200270  12.1168670
  60.1748580  66.6537170  12.3071720  71.9533050  67.7088600  10.3138860
  71.2696570  68.3787710  10.3055530  72.4927340  67.9069250   9.5483720
  73.4057190  57.5368260   8.4420590  72.4582100  57.5707240   8.5736020
  73.7307180  58.3507210   8.8269950  63.9376730  53.8365440   6.7376580
  64.2451710  53.2812330   6.0212080  63.0077430  53.9709900   6.5549570
  69.4891790  69.5532730   9.0284040  69.5018950  69.1495020   8.1606300
  68.9367010  70.3280020   8.9245470  70.7837210  66.2748950   4.1174210
  70.6733540  65.3323280   4.2423630  70.7805460  66.6364590   5.0036970
  68.8877230  64.4562570  10.3566650  69.3046020  64.2422680   9.5220110
  69.6117050  64.7135360  10.9275270  66.3257490  61.9014270   3.4736700
  65.3986770  61.8351650   3.7025170  66.4782310  62.8394400   3.3591940
  72.8339330  62.8549790  10.4482890  72.0057960  62.9242880   9.9733020
  73.4289810  63.4404100   9.9798720  70.3554780  63.4634570   3.9771950
  69.7367200  63.1254120   3.3298250  70.3379230  62.8194330   4.6851140
  69.7981340  59.6419110  11.3937760  69.3852520  60.4672820  11.6477750
  69.0657290  59.0564150  11.2014120  61.9314130  62.4279010   6.2556430
  61.5271130  61.7156260   5.7602330  62.0177250  62.0832250   7.1444470
  62.3995830  66.1146570   8.4195640  62.1024120  65.5092040   7.7403420
  63.3495650  66.1523880   8.3085000  60.6442750  59.2022220  10.0355470
  61.1957340  59.3117560   9.2608720  61.1586260  59.5759820  10.7510700
  70.4881440  69.6878440  12.0818740  70.0112000  70.4950630  11.8891350
  69.8043230  69.0356770  12.2344950  61.4914260  65.8528260  15.0703440
  60.5942790  66.0768230  15.3176840  61.5167130  65.9763200  14.1214840
  60.3185480  62.7241580  13.6460810  60.1793250  63.5964380  14.0148210
  59.4366840  62.3814390  13.5008750  66.6414860  67.6417450   4.9525940
  67.0810770  68.3841780   4.5381330  66.5801750  67.8844020   5.8764900
  62.1165830  68.6663280  15.8545960  62.0881260  69.0706230  14.9874390
  61.9530800  67.7373640  15.6917560  58.6318760  61.3223990   3.7563080
  58.5116360  62.0486080   3.1444350  58.3219650  60.5526900   3.2790990
  74.0680650  69.4490380  17.1510130  74.5440370  69.9273270  17.8299210
  74.6887810  69.3807870  16.4255630  56.2704130  64.4939130   9.5631720
  56.3484550  64.6287900   8.6187440  56.8845810  63.7855020   9.7559840
  57.5151760  66.1939320   5.9737900  57.1079840  66.3353910   5.1191500
  58.4064770  65.9099480   5.7709110  73.4713900  66.6403230  14.3110140
  73.5976960  66.4015110  13.3927320  73.5135280  65.8087770  14.7832220
  67.3330640  70.3431230  12.8804950  67.8475310  70.2539240  13.6827380
  66.4899720  70.6890930  13.1732860  69.3085040  70.6286570   2.3088950
  69.1486180  70.3389510   3.2070780  69.1431750  69.8526700   1.7734180
  61.7873420  70.4085100   4.0860570  61.6115900  69.4920640   3.8728370
  60.9329160  70.7672390   4.3258370  68.5761100  69.7636840   4.9435440
  69.0318050  68.9826220   5.2574060  68.9153620  70.4743660   5.4876620
  73.3237910  58.6935690  15.2759880  72.7082180  59.2015360  14.7475340
  73.0034330  57.7934020  15.2185820  56.3263650  65.5353300  12.1026180
  56.4894690  65.0658660  11.2845550  56.7916100  65.0276860  12.7675020
  61.0982420  54.6659060   7.1386750  60.6550570  55.4468600   6.8071270
  61.6567410  54.9888950   7.8457690  65.3852230  57.5327580  12.7422070
  64.9231600  57.7410600  13.5542010  64.9830340  56.7186930  12.4392740
  70.3856740  58.7536530  13.8718730  69.5350330  58.4542280  14.1927800
  70.2258530  58.9978540  12.9602550  67.4806450  60.2538280  15.9717520
  67.8059860  59.4202030  15.6319750  68.2686780  60.7766800  16.1195850
  63.1358320  55.2106390   8.9976350  63.4330650  56.1169220   8.9168370
  63.6843880  54.7225170   8.3835920  60.8896640  59.7892630   4.8668000
  60.6637560  59.5729800   5.7714620  60.1089170  60.2221090   4.5213970
  68.1194400  59.7956000   3.4658650  67.5203290  60.5191800   3.2822270
  68.6674010  59.7332780   2.6835100  63.3295850  60.6878210  15.5328270
  63.2339450  59.7472940  15.3828670  64.1727830  60.9093280  15.1376340
  66.7259270  58.4319540   5.4961930  67.1188840  58.7491740   4.6830620
  67.0876120  57.5531420   5.6106450  58.4606390  57.0991880  13.6862050
  58.0669780  57.9467090  13.8934830  57.7724790  56.4618250  13.8770690
  65.0351440  57.1826850  16.7558790  64.3449760  56.9899050  17.3904880
  65.7783740  57.4661490  17.2883090  55.7623440  55.0220340   7.7192130
  55.4736490  55.5923200   8.4317110  56.5069200  54.5424790   8.0823360
  67.3114410  61.0225290   9.5912710  66.5795530  61.5312100   9.9402810
  66.9138750  60.2055270   9.2901490  63.7491800  57.6979490   7.9965200
  63.7527860  57.2569440   7.1469740  64.6442920  58.0196820   8.1037020
  59.5994180  57.5805980   6.9559410  59.2594230  58.0581210   7.7126460
  58.8371500  57.1271100   6.5960510  67.7740320  56.4758970   9.0035650
  67.7913060  56.9267620   9.8477500  67.5255900  55.5764610   9.2169090
  71.2011070  53.8891150  14.8422030  71.5256840  53.1580810  15.3680010
  71.2367580  53.5704790  13.9403020  57.9002630  64.9104730  14.2621990
  57.5157420  64.2698400  14.8604950  58.2114820  65.6140850  14.8316720
  64.0499770  61.7581270   9.7430610  64.4169900  61.2839840  10.4891950
  63.8604830  62.6322840  10.0838950  56.9140260  56.5024960   5.8724080
  56.6287180  56.1380630   6.7102700  56.8519120  55.7705420   5.2587220
  61.8399140  60.7989910  12.0614820  61.5356210  61.6781890  12.2865180
  62.7945600  60.8589700  12.0972260  60.3680930  65.0050900   2.6581670
  59.5943190  64.4648520   2.4980390  61.0975560  64.4857510   2.3199430
  71.1268910  64.0016260   8.4508060  71.8468030  64.4971550   8.0604170
  70.9250730  63.3234150   7.8061930  66.5878850  55.3954220   2.5937450
  65.7743460  54.8967390   2.5182760  66.3940800  56.2352470   2.1773800
  66.5087710  64.0725320  14.3377060  66.4425020  63.1520990  14.0834650
  65.8792850  64.1700760  15.0521700  60.4118330  64.6731280   6.2960480
  60.9297000  63.8699540   6.2417370  59.9602350  64.6110420   7.1377310
  57.8962870  61.6392650  13.2086180  57.5377810  62.3046500  13.7959520
  57.6017430  60.8076200  13.5798800  61.0975990  62.0976890  16.0925730
  60.7976130  62.2434070  15.1953550  61.8687230  61.5382180  15.9999120
  66.4404440  66.8945890  14.0880860  66.4548980  65.9626850  13.8699770
  65.7329540  66.9805650  14.7270630  72.6515650  63.5353230  13.4349440
  71.9263840  64.1282010  13.2378830  73.1791110  63.5276770  12.6362810
  72.6028760  67.9327970   3.0861600  71.9604920  67.2783590   3.3605320
  72.2159420  68.3383060   2.3102270  68.1815240  65.2613400   6.9333290
  68.5339060  64.6641530   6.2734660  67.2977570  64.9357630   7.1041540
  64.2678520  66.0211090   4.3403700  64.9549650  66.5680300   4.7211290
  63.4810940  66.5651820   4.3753310  63.5705730  63.0257120   3.9529060
  64.0268510  63.8362370   4.1789250  63.2193940  62.7080260   4.7847550
  65.8738340  68.5363460  11.1821360  66.5180560  68.7422840  11.8594780
  66.2367780  67.7751860  10.7292210  59.4717510  53.3694770   4.4251580
  59.3432140  53.3612670   5.3736500  58.6479530  53.7077860   4.0742590
  67.1470420  66.5395810   9.8998810  67.7892650  65.8388970  10.0130980
  67.6719770  67.3194250   9.7195700  68.9208040  67.3390710  13.1034870
  69.2564280  67.9257400  13.7812790  68.0008380  67.2083420  13.3332660
  56.4711440  55.1285890  13.8858280  55.7569960  55.3282810  14.4910890
  56.8906480  54.3525460  14.2573080  56.7584030  69.1166150  14.8724810
  56.8675150  68.1760890  14.7320200  56.1064590  69.3820900  14.2238540
  64.7496620  67.3882040  16.2722930  64.4293490  66.6691280  16.8168620
  64.0754980  68.0637110  16.3458990  67.9650220  57.6208200  11.6359730
  68.3331040  56.8003410  11.9639300  67.1048420  57.6810090  12.0515380
  71.3312250  56.5765140   2.4447290  70.7025410  56.6810810   1.7305520
  70.8364170  56.7961920   3.2341170  63.2996280  58.8551090   3.8605170
  62.5912430  59.3237430   4.3018780  63.5840760  58.1973100   4.4950360
  64.9252210  60.2747790  11.8597700  65.4237460  60.7493610  12.5249550
  65.0675160  59.3511310  12.0667730  67.3311710  55.5801750   5.3000960
  67.2079490  55.5987880   4.3510470  68.2796270  55.6280690   5.4199360
  64.4188500  70.8157050   4.5728940  64.6730000  70.7778440   3.6508310
  63.4700980  70.6890380   4.5657190  72.1319070  56.4915750  12.7026090
  71.6292670  57.2321150  13.0419900  72.9475730  56.8799750  12.3862880
  70.4241080  61.7348930   6.1487450  69.4831220  61.7499160   6.3235140
  70.7385150  60.9484890   6.5947750  72.4266660  68.9057780   7.8241710
  72.5514080  69.7288950   8.2965520  73.2932220  68.6948510   7.4765860
  59.8984190  70.9988990   7.4958840  60.6346670  70.4504450   7.7667410
  60.2825110  71.8645000   7.3564830  56.7829670  67.0662560   3.3700350
  55.8569450  67.3083700   3.3605760  57.2486100  67.8936820   3.2485100
  58.9042470  70.1835060  16.6844420  59.7055200  70.5047110  17.0979820
  58.3894290  69.8230640  17.4064330  67.7407100  66.2914930  16.6319830
  67.1345260  66.3146530  15.8915580  67.4361210  65.5597970  17.1687080
  69.1707470  70.0195220  15.2429240  70.1229220  69.9353240  15.1929480
  69.0235690  70.6836930  15.9163030  56.6240280  62.6708520  15.6280470
  57.1279300  62.0915800  16.1996700  55.8847700  62.9548750  16.1656840
  63.6778220  64.0779510  15.1615990  62.9123890  64.6464510  15.0770660
  63.8594180  63.7855720  14.2684220  70.8201570  65.8084840  15.7191010
  71.5611040  66.1460600  15.2158470  70.0574250  65.9776900  15.1660780
  58.6563360  60.8138110  16.5230540  58.6968700  60.5151980  17.4315770
  59.5108860  61.2145720  16.3638060  60.5969170  59.3930210  14.4905030
  60.0665630  58.9021160  13.8628370  61.2657240  59.8214410  13.9562960
  69.4947230  63.8599670  14.2546220  69.9088250  64.0144750  15.1036640
  68.5598230  63.9854890  14.4172000  69.9669400  61.1995830  16.2585370
  70.5490170  60.4448150  16.1705850  70.1431170  61.7303270  15.4816850
  61.0841470  56.3592580  14.5702320  60.9898340  55.7413330  13.8453190
  60.5038860  57.0858870  14.3432230  63.8502910  54.9165820  11.6029710
  63.4020210  54.9390080  10.7575260  63.2168110  54.5184840  12.2000010
  64.2562460  63.8120150  12.2242150  64.6750570  64.6552880  12.0518390
  63.3371090  63.9492190  11.9948930  66.5926360  61.5436330  13.6079990
  66.7122570  60.9477470  14.3474830  67.4520360  61.5806020  13.1881290
  68.9314260  62.0973520  12.1842500  68.4049480  62.6216140  11.5807640
  69.2745600  62.7300910  12.8152230  62.1069880  70.1173160  13.3399880
  61.5690970  70.8419220  13.0208580  62.3603840  69.6403500  12.5497220
  63.3595130  58.0857680  14.8655810  63.9494820  57.7773530  15.5533630
  62.5415370  57.6137430  15.0215710  68.1788560  57.7023490  15.0988830
  67.4904080  57.0405030  15.0338820  68.8994580  57.2561760  15.5437290
  64.9632090  71.3524370  13.5986530  64.8890790  72.2559510  13.9058900
  64.0610930  71.0336270  13.5708600  56.3659380  68.6798960   6.9020150
  56.6962390  67.8120020   6.6698790  56.7950380  68.8857480   7.7325110
  60.9621300  67.0107970   4.5622120  60.6616840  66.8872940   5.4626030
  60.8558790  66.1516560   4.1537850  56.8549590  69.5469550   9.6401780
  56.4180580  69.7270350  10.4725930  57.4227270  70.3044170   9.4983500
  72.4911770  69.0486550  13.9279090  71.8913760  69.1079110  13.1843010
  72.6205670  68.1091530  14.0575940  73.1869680  63.5351850   1.7683000
  73.9488590  64.1048500   1.8742690  73.2024050  62.9679050   2.5391310
  56.6874020  62.0589780   5.9990660  56.0322860  61.7901420   5.3550360
  57.5251970  61.9494260   5.5492640  74.1929650  64.3901950   6.6124930
  74.5638480  63.6069270   6.2060900  74.8331580  65.0791050   6.4342230
  71.1763410  65.7738530  12.0255250  70.3623250  66.2035690  12.2881040
  71.5837610  66.3856940  11.4124300  73.1354190  61.7655210   3.9184950
  72.7597790  60.9983140   3.4866240  72.4057310  62.1477910   4.4059880
  57.7249950  62.4442350  10.5394000  58.0922990  62.3569750  11.4190020
  57.1560770  61.6808900  10.4400860  72.5253810  60.9126730  13.5524470
  72.2939900  60.6839480  12.6522420  72.7858360  61.8326280  13.5069360
  57.2765950  59.3551440  14.4452420  56.3822000  59.3218200  14.7846130
  57.8163500  59.5538230  15.2103670  70.9641880  56.1383160  16.3304170
  71.8412060  56.1466560  16.7138170  70.9762720  55.4014000  15.7196520
  72.4105150  59.9912700   7.2192190  72.9342630  59.4975350   6.5882360
  72.9964570  60.1263060   7.9639760  72.5894870  60.0752570  10.7411740
  71.6397580  60.0416110  10.8556730  72.7707880  60.9852680  10.5061510
  71.9005120  59.2486050   3.1584600  72.3964240  59.0156920   3.9433480
  71.7021190  58.4097890   2.7422240  57.7805660  53.6299770   8.7935640
  58.4281850  53.0797150   8.3530800  58.2007500  53.8842920   9.6151450
  73.3292280  57.8847000   5.6922280  73.2191560  57.7303040   6.6304550
  74.0899870  57.3567940   5.4497690  71.6758000  53.8241130  12.1505280
  72.3130220  54.4375270  12.5164470  71.8232890  53.8601790  11.2054510
  71.2339460  70.5257130   5.5523520  71.8298530  70.2041700   4.8757940
  71.4917610  70.0528950   6.3436790  57.5337660  53.7855440  11.5360960
  57.1852480  54.2419260  12.3019140  57.2025360  52.8912570  11.6183390
  59.1402030  66.9575040  15.7014150  59.0971660  66.5867950  16.5828610
  59.2713040  67.8952610  15.8415970  62.8408060  68.5134630  11.3023870
  62.5999420  68.7809190  10.4154390  63.7810700  68.6840360  11.3574730
  65.0462480  54.9767320  15.0580380  64.9851370  55.5689150  15.8075790
  65.9862860  54.8693280  14.9130640  67.6837040  54.6337380  14.6972670
  68.2977450  54.9516670  14.0353750  68.2286600  54.1485970  15.3168530
  74.1012220  70.5329010  12.1034510  73.6070500  70.9297880  11.3861640
  73.4925510  69.9078220  12.4971790  58.2058300  53.3131640  14.8111730
  58.7541290  53.1319690  14.0477840  58.2713610  52.5225750  15.3468040
  58.9790060  69.9037290  12.8211930  58.3850380  69.7721990  13.5601970
  58.9713900  69.0675430  12.3554030  68.4245080  53.1969520  11.0241960
  67.5504920  53.5304630  10.8214890  68.3155830  52.7242700  11.8493830
  69.3317060  55.4040390  12.4083680  69.0030420  54.5892150  12.0285410
  70.2799360  55.3610200  12.2849370  71.7851670  71.1752430   9.3821250
  71.3254640  71.9268240   9.0079270  71.1564130  70.4558900   9.3236050
  58.6102290  67.2695670  11.7719970  57.8836350  66.6500960  11.7045920
  58.6711440  67.6636280  10.9018050  62.2147390  69.4840670   8.5569380
  62.7312410  68.8728030   8.0317640  62.8644770  69.9869450   9.0480390
  64.9542890  70.3749160   9.3838360  65.2420700  70.1203460   8.5071370
  65.4666110  69.8226520   9.9743930  66.1719900  54.1139360   9.9634870
  65.3891690  54.5884860  10.2431630  65.8782830  53.2094190   9.8548050
  70.7240970  54.8162460   8.0083960  71.1649060  54.7607560   7.1605560
  70.4548560  55.7320470   8.0794140  72.5879540  54.4477700   6.0192780
  72.5267940  53.5038920   5.8723800  73.3671570  54.5557790   6.5646240
  56.8932290  70.5870060   4.9816730  56.7254330  69.9540740   5.6798620
  56.0266800  70.7929460   4.6310920  57.5160310  54.4186840   2.4848590
  58.2739670  54.5315720   1.9112620  57.0537480  55.2556040   2.4392020
  64.0574120  56.5326110   5.4750900  63.2448630  56.1583000   5.1346780
  64.5615760  55.7771190   5.7772090  68.5599100  53.1968560   6.7133970
  69.1628470  53.7688770   7.1882490  67.8192090  53.7608000   6.4907870
  71.7033700  53.5990120   1.9874250  71.8984330  54.4973570   2.2541680
  70.9163570  53.3677200   2.4807200  58.4994990  69.2803290   2.4266870
  57.9742610  69.6611320   1.7228830  58.4239570  69.9054060   3.1476580
  62.0823300  54.6826030   4.0795950  61.4526040  53.9813340   4.2466080
  61.5428440  55.4430160   3.8629110  65.0215250  71.2965260  16.7506560
  65.9482560  71.0609530  16.7942520  65.0065680  72.1237260  16.2692590
  73.2560310  70.8390830   3.7480810  73.4312500  70.1528570   3.1041730
  72.5581880  71.3637880   3.3557480  62.2078860  53.9610010  16.5148440
  61.9263130  54.4643610  15.7509260  62.5898560  53.1631760  16.1490570
  68.8094320  53.3763590  17.0928910  68.6959770  53.6958200  17.9880430
  69.6264060  53.7776100  16.7966190  71.5892810  70.5235120  16.5747600
  72.3818130  70.0284350  16.3673560  71.8825960  71.2025260  17.1823210
  67.7152470  42.6212570  81.3281100  67.6346520  41.7067180  81.0572810
  67.3016890  43.1179640  80.6220810  65.8470510  44.3991590  83.2090370
  65.0712610  43.9192030  83.4988940  66.4983440  43.7197240  83.0346530
  59.8636340  44.7111400  84.0866130  59.0321220  44.4560110  84.4862640
  60.4717320  44.7822170  84.8224050  69.8677940  48.8051780  81.9889500
  69.4059470  48.0339020  82.3176670  70.6803490  48.8317850  82.4941950
  59.8437600  48.7451490  84.2824150  60.1465640  47.8549230  84.1034370
  60.5881190  49.3021710  84.0546400  58.2728290  39.6713290  77.8708520
  57.3844990  40.0129260  77.7688400  58.5569480  39.4713610  76.9789350
  56.2361300  42.2718940  83.7548220  56.8077410  41.5041140  83.7551860
  56.2362840  42.5707700  82.8454830  66.0941250  51.0909790  81.6093490
  65.4752690  51.5467290  81.0387930  66.9493030  51.2461250  81.2083190
  65.2879500  47.0748780  83.2160530  65.2187780  46.1338720  83.0549660
  66.0499360  47.1650190  83.7883100  57.4786170  37.6803300  85.5417150
  57.2989010  36.7829050  85.8219910  57.0766250  38.2275170  86.2164100
  66.3184670  39.8819160  83.4429460  66.6949490  39.0091040  83.3303130
  66.2204180  40.2177860  82.5519900  60.4489680  38.2544790  78.9046900
  60.5556430  39.1548520  79.2115660  59.5382040  38.2062760  78.6141550
  70.1008790  37.3769600  80.3757800  70.9218410  36.8866170  80.4183280
  70.1342870  37.9667260  81.1289640  58.0972840  40.1763800  84.1499490
  58.7782950  40.4402170  84.7686890  57.7820890  39.3364670  84.4837500
  62.2897410  41.2231160  83.2372080  62.7975630  41.7212130  83.8777100
  62.8210650  40.4466360  83.0611440  74.3908340  39.3936350  86.9401430
  73.6860510  39.7818060  86.4216540  74.6566260  40.0886640  87.5422360
  60.5733510  35.8629720  87.5035500  60.5751950  36.3802110  86.6981400
  59.7437820  35.3859900  87.4805430  66.9604600  45.9749030  79.0025400
  66.3421870  46.4398480  78.4388120  67.4727850  46.6676510  79.4194910
  61.8236360  45.5024900  85.6809000  61.4905740  46.1293820  86.3230070
  62.0003040  46.0286780  84.9010670  70.3370270  39.3169980  83.1485340
  69.6325840  39.6054870  83.7288450  70.6982430  40.1270090  82.7884900
  60.2548840  37.5739680  85.5105950  60.5965650  38.4181730  85.2159820
  59.3164650  37.7223420  85.6271290  61.0355460  47.4705700  87.4958180
  61.6529460  48.1456780  87.2142630  60.1748580  47.8793680  87.4045680
  56.3287800  46.6605560  76.3765030  55.9515780  47.1492660  75.6449930
  56.5860870  47.3330840  77.0071560  71.9533050  48.9345110  85.4112820
  71.2696570  49.6044220  85.4029490  72.4927340  49.1325760  84.6457680
  73.4057190  38.7624770  83.5394550  72.4582100  38.7963750  83.6709980
  73.7307180  39.5763720  83.9243910  63.9376730  35.0621950  81.8350540
  64.2451710  34.5068840  81.1186040  63.0077430  35.1966410  81.6523530
  69.4891790  50.7789240  84.1258000  69.5018950  50.3751530  83.2580260
  68.9367010  51.5536530  84.0219430  70.7837210  47.5005460  79.2148170
  70.6733540  46.5579790  79.3397590  70.7805460  47.8621100  80.1010930
  68.8877230  45.6819080  85.4540610  69.3046020  45.4679190  84.6194070
  69.6117050  45.9391870  86.0249230  66.3257490  43.1270780  78.5710660
  65.3986770  43.0608160  78.7999130  66.4782310  44.0650910  78.4565900
  66.3126570  39.3987780  75.5677820  65.3730240  39.5601740  75.6530280
  66.6309830  40.1173460  75.0213810  72.8339330  44.0806300  85.5456850
  72.0057960  44.1499390  85.0706980  73.4289810  44.6660610  85.0772680
  70.3554780  44.6891080  79.0745910  69.7367200  44.3510630  78.4272210
  70.3379230  44.0450840  79.7825100  69.7981340  40.8675620  86.4911720
  69.3852520  41.6929330  86.7451710  69.0657290  40.2820660  86.2988080
  61.9314130  43.6535520  81.3530390  61.5271130  42.9412770  80.8576290
  62.0177250  43.3088760  82.2418430  62.3995830  47.3403080  83.5169600
  62.1024120  46.7348550  82.8377380  63.3495650  47.3780390  83.4058960
  60.6442750  40.4278730  85.1329430  61.1957340  40.5374070  84.3582680
  61.1586260  40.8016330  85.8484660  70.4881440  50.9134950  87.1792700
  70.0112000  51.7207140  86.9865310  69.8043230  50.2613280  87.3318910
  68.5319480  43.9277890  76.0818660  68.9712760  43.0900320  75.9356480
  69.2447900  44.5607290  76.1682800  60.3185480  43.9498090  88.7434770
  60.1793250  44.8220890  89.1122170  59.4366840  43.6070900  88.5982710
  66.6414860  48.8673960  80.0499900  67.0810770  49.6098290  79.6355290
  66.5801750  49.1100530  80.9738860  72.1136620  35.1820700  74.3959700
  71.8009280  35.2747530  75.2958770  72.8749090  35.7601730  74.3457130
  58.6318760  42.5480500  78.8537040  58.5116360  43.2742590  78.2418310
  58.3219650  41.7783410  78.3764950  56.2704130  45.7195640  84.6605680
  56.3484550  45.8544410  83.7161400  56.8845810  45.0111530  84.8533800
  57.5151760  47.4195830  81.0711860  57.1079840  47.5610420  80.2165460
  58.4064770  47.1355990  80.8683070  67.3330640  51.5687740  87.9778910
  67.8475310  51.4795750  88.7801340  66.4899720  51.9147440  88.2706820
  69.3085040  51.8543080  77.4062910  69.1486180  51.5646020  78.3044740
  69.1431750  51.0783210  76.8708140  61.7873420  51.6341610  79.1834530
  61.6115900  50.7177150  78.9702330  60.9329160  51.9928900  79.4232330
  69.0111170  49.3630640  75.9660910  68.3176330  49.3607930  75.3063190
  69.7534030  48.9389960  75.5355080  68.5761100  50.9893350  80.0409400
  69.0318050  50.2082730  80.3548020  68.9153620  51.7000170  80.5850580
  56.3263650  46.7609810  87.2000140  56.4894690  46.2915170  86.3819510
  56.7916100  46.2533370  87.8648980  61.0982420  35.8915570  82.2360710
  60.6550570  36.6725110  81.9045230  61.6567410  36.2145460  82.9431650
  65.3852230  38.7584090  87.8396030  64.9231600  38.9667110  88.6515970
  64.9830340  37.9443440  87.5366700  64.2141240  35.5126270  77.1166540
  63.5895420  35.5086140  77.8419850  64.1271360  34.6457230  76.7202510
  63.1358320  36.4362900  84.0950310  63.4330650  37.3425730  84.0142330
  63.6843880  35.9481680  83.4809880  60.8896640  41.0149140  79.9641960
  60.6637560  40.7986310  80.8688580  60.1089170  41.4477600  79.6187930
  68.1194400  41.0212510  78.5632610  67.5203290  41.7448310  78.3796230
  68.6674010  40.9589290  77.7809060  66.7259270  39.6576050  80.5935890
  67.1188840  39.9748250  79.7804580  67.0876120  38.7787930  80.7080410
  58.4606390  38.3248390  88.7836010  58.0669780  39.1723600  88.9908790
  57.7724790  37.6874760  88.9744650  55.7623440  36.2476850  82.8166090
  55.4736490  36.8179710  83.5291070  56.5069200  35.7681300  83.1797320
  55.9493670  40.1896970  74.0268810  55.8668340  41.1327730  74.1683800
  55.5976730  40.0471880  73.1481160  67.3114410  42.2481800  84.6886670
  66.5795530  42.7568610  85.0376770  66.9138750  41.4311780  84.3875450
  63.7491800  38.9236000  83.0939160  63.7527860  38.4825950  82.2443700
  64.6442920  39.2453330  83.2010980  59.5994180  38.8062490  82.0533370
  59.2594230  39.2837720  82.8100420  58.8371500  38.3527610  81.6934470
  63.8111950  39.9248080  76.0845920  63.9324770  39.8834560  77.0331740
  63.4260460  40.7872230  75.9292650  67.7740320  37.7015480  84.1009610
  67.7913060  38.1524130  84.9451460  67.5255900  36.8021120  84.3143050
  62.8233450  42.2349220  75.4829220  62.2550350  41.7867470  74.8565130
  63.5322450  42.5942000  74.9494370  64.0499770  42.9837780  84.8404570
  64.4169900  42.5096350  85.5865910  63.8604830  43.8579350  85.1812910
  56.9140260  37.7281470  80.9698040  56.6287180  37.3637140  81.8076660
  56.8519120  36.9961930  80.3561180  61.8399140  42.0246420  87.1588780
  61.5356210  42.9038400  87.3839140  62.7945600  42.0846210  87.1946220
  60.3680930  46.2307410  77.7555630  59.5943190  45.6905030  77.5954350
  61.0975560  45.7114020  77.4173390  71.1268910  45.2272770  83.5482020
  71.8468030  45.7228060  83.1578130  70.9250730  44.5490660  82.9035890
  66.5878850  36.6210730  77.6911410  65.7743460  36.1223900  77.6156720
  66.3940800  37.4608980  77.2747760  69.3027240  40.9930380  75.9873570
  70.1906860  41.3047610  75.8124910  69.2732330  40.1202630  75.5954150
  60.4118330  45.8987790  81.3934440  60.9297000  45.0956050  81.3391330
  59.9602350  45.8366930  82.2351270  65.2987830  47.1654070  76.6661740
  65.6403530  47.9096300  76.1705060  64.4700540  47.4785190  77.0286570
  57.8962870  42.8649160  88.3060140  57.5377810  43.5303010  88.8933480
  57.6017430  42.0332710  88.6772760  71.5741510  42.3042220  75.4553430
  71.4905230  42.7356440  74.6049870  72.2935700  42.7640570  75.8880250
  72.6515650  44.7609740  88.5323400  71.9263840  45.3538520  88.3352790
  73.1791110  44.7533280  87.7336770  72.6028760  49.1584480  78.1835560
  71.9604920  48.5040100  78.4579280  72.2159420  49.5639570  77.4076230
  68.1815240  46.4869910  82.0307250  68.5339060  45.8898040  81.3708620
  67.2977570  46.1614140  82.2015500  64.2678520  47.2467600  79.4377660
  64.9549650  47.7936810  79.8185250  63.4810940  47.7908330  79.4727270
  56.4070920  42.8640420  74.9294740  57.2765770  43.1465220  75.2130660
  55.9161240  43.6776290  74.8143550  63.5705730  44.2513630  79.0503020
  64.0268510  45.0618880  79.2763210  63.2193940  43.9336770  79.8821510
  65.8738340  49.7619970  86.2795320  66.5180560  49.9679350  86.9568740
  66.2367780  49.0008370  85.8266170  59.4717510  34.5951280  79.5225540
  59.3432140  34.5869180  80.4710460  58.6479530  34.9334370  79.1716550
  67.1470420  47.7652320  84.9972770  67.7892650  47.0645480  85.1104940
  67.6719770  48.5450760  84.8169660  70.9926140  48.0500940  74.7211910
  70.7663720  47.3331380  75.3136550  70.6022340  47.8013380  73.8833660
  68.9208040  48.5647220  88.2008830  69.2564280  49.1513910  88.8786750
  68.0008380  48.4339930  88.4306620  56.7742170  52.0767800  75.4956370
  57.1339810  52.6757140  74.8413640  56.6334510  52.6227690  76.2691400
  70.5742390  45.9672880  76.3826070  70.2864090  46.4285570  77.1703950
  71.3694560  45.5070650  76.6510290  62.7910790  49.4599000  76.3130040
  62.7820890  50.1928690  75.6974550  61.8709150  49.2130580  76.4057000
  58.3917430  44.6813890  77.0576800  57.7845380  45.4212790  77.0672100
  58.8666780  44.7713250  76.2315000  67.9650220  38.8464710  86.7333690
  68.3331040  38.0259920  87.0613260  67.1048420  38.9066600  87.1489340
  71.3312250  37.8021650  77.5421250  70.7025410  37.9067320  76.8279480
  70.8364170  38.0218430  78.3315130  65.7770390  49.5227240  74.9755230
  65.8782370  49.3191230  74.0457210  64.8772130  49.2685520  75.1803010
  63.2996280  40.0807600  78.9579130  62.5912430  40.5493940  79.3992740
  63.5840760  39.4229610  79.5924320  64.9252210  41.5004300  86.9571660
  65.4237460  41.9750120  87.6223510  65.0675160  40.5767820  87.1641690
  67.3311710  36.8058260  80.3974920  67.2079490  36.8244390  79.4484430
  68.2796270  36.8537200  80.5173320  64.4188500  52.0413560  79.6702900
  64.6730000  52.0034950  78.7482270  63.4700980  51.9146890  79.6631150
  61.5031300  38.3892680  76.3329840  62.3521830  38.8262830  76.2670030
  61.1362570  38.7012940  77.1601900  72.1319070  37.7172260  87.8000050
  71.6292670  38.4577660  88.1393860  72.9475730  38.1056260  87.4836840
  70.4241080  42.9605440  81.2461410  69.4831220  42.9755670  81.4209100
  70.7385150  42.1741400  81.6921710  60.4022720  44.6425040  74.8065370
  61.1685990  44.5306400  75.3690800  60.4797410  43.9463010  74.1542140
  59.0969480  42.0750110  75.4898260  59.1773070  41.1277620  75.6015660
  59.9889230  42.4056990  75.5958920  72.4266660  50.1314290  82.9215670
  72.5514080  50.9545460  83.3939480  73.2932220  49.9205020  82.5739820
  59.8984190  52.2245500  82.5932800  60.6346670  51.6760960  82.8641370
  60.2825110  53.0901510  82.4538790  56.7829670  48.2919070  78.4674310
  55.8569450  48.5340210  78.4579720  57.2486100  49.1193330  78.3459060
  63.0086500  51.3975810  74.4158370  63.8015110  51.6864640  73.9640160
  62.4890850  50.9667980  73.7370850  72.0616670  50.6245940  75.8395110
  71.7758180  50.2111080  75.0249290  71.8636220  51.5533650  75.7195630
  63.5263900  46.6179220  74.2800720  63.4214540  46.0031570  75.0062100
  63.3588120  46.0945110  73.4963730  66.7666630  45.6799250  74.8842710
  66.2176730  46.1268550  75.5285450  67.3885890  45.1748500  75.4080380
  62.4341750  44.6390170  76.7808010  62.8558170  44.4730040  77.6239400
  62.5592590  43.8290400  76.2863150  64.9469390  43.6627780  74.0285110
  65.4675050  42.9476800  73.6626260  65.5937790  44.3013650  74.3285620
  63.8502910  36.1422330  86.7003670  63.4020210  36.1646590  85.8549220
  63.2168110  35.7441350  87.2973970  64.2562460  45.0376660  87.3216110
  64.6750570  45.8809390  87.1492350  63.3371090  45.1748700  87.0922890
  68.9314260  43.3230030  87.2816460  68.4049480  43.8472650  86.6781600
  69.2745600  43.9557420  87.9126190  61.3300650  40.7123400  73.7266170
  61.1289710  39.8490760  74.0879510  61.1592700  40.6256760  72.7887770
  62.1069880  51.3429670  88.4373840  61.5690970  52.0675730  88.1182540
  62.3603840  50.8660010  87.6471180  68.8088960  35.5231630  76.2553050
  69.0891250  34.6799530  76.6112470  68.0354690  35.7554740  76.7691800
  60.1283450  37.8124020  73.7144050  60.4309350  37.8191450  72.8063200
  60.8678040  37.4621880  74.2111710  64.9632090  52.5780880  88.6960490
  64.8890790  53.4816020  89.0032860  64.0610930  52.2592780  88.6682560
  63.3468380  36.7558640  74.7000250  62.9990380  36.0782630  74.1202700
  63.5481150  36.2948150  75.5143640  65.5117420  51.7439390  76.3186850
  66.4068210  52.0824360  76.3405610  65.5435050  51.0218800  75.6911130
  59.1513580  47.1166440  74.5473850  59.5888450  47.6596110  75.2031430
  59.6361310  46.2913390  74.5570190  56.3659380  49.9055470  81.9994110
  56.6962390  49.0376530  81.7672750  56.7950380  50.1113990  82.8299070
  60.9621300  48.2364480  79.6596080  60.6616840  48.1129450  80.5599990
  60.8558790  47.3773070  79.2511810  56.8549590  50.7726060  84.7375740
  56.4180580  50.9526860  85.5699890  57.4227270  51.5300680  84.5957460
  73.7313220  48.0160880  74.3622760  72.9006180  48.0837530  74.8329990
  73.9085050  48.9065000  74.0589620  73.1869680  44.7608360  76.8656960
  73.9488590  45.3305010  76.9716650  73.2024050  44.1935560  77.6365270
  56.6874020  43.2846290  81.0964620  56.0322860  43.0157930  80.4524320
  57.5251970  43.1750770  80.6466600  74.1929650  45.6158460  81.7098890
  74.5638480  44.8325780  81.3034860  74.8331580  46.3047560  81.5316190
  71.1763410  46.9995040  87.1229210  70.3623250  47.4292200  87.3855000
  71.5837610  47.6113450  86.5098260  73.2388850  45.0542730  74.0229480
  73.5137690  45.9621610  73.8948700  73.0499590  44.9905260  74.9591470
  69.6364460  38.0787580  75.3183110  70.0549340  37.8918560  74.4779770
  69.3300520  37.2266630  75.6286040  73.1354190  42.9911720  79.0158910
  72.7597790  42.2239650  78.5840200  72.4057310  43.3734420  79.5033840
  57.7249950  43.6698860  85.6367960  58.0922990  43.5826260  86.5163980
  57.1560770  42.9065410  85.5374820  72.5253810  42.1383240  88.6498430
  72.2939900  41.9095990  87.7496380  72.7858360  43.0582790  88.6043320
  55.9012100  40.4945220  77.0389950  54.9976180  40.7575420  76.8641610
  56.3852720  40.7656390  76.2589910  72.4105150  41.2169210  82.3166150
  72.9342630  40.7231860  81.6856320  72.9964570  41.3519570  83.0613720
  72.5894870  41.3009080  85.8385700  71.6397580  41.2672620  85.9530690
  72.7707880  42.2109190  85.6035470  58.4439310  39.5510760  74.9484330
  59.1531010  39.1293980  74.4631610  57.7279250  39.6185990  74.3167680
  58.0913470  35.6050090  73.9886980  58.8141600  36.1459030  74.3068200
  58.3637990  35.3313510  73.1128520  71.9005120  40.4742560  78.2558560
  72.3964240  40.2413430  79.0407440  71.7021190  39.6354400  77.8396200
  57.7805660  34.8556280  83.8909600  58.4281850  34.3053660  83.4504760
  58.2007500  35.1099430  84.7125410  73.3292280  39.1103510  80.7896240
  73.2191560  38.9559550  81.7278510  74.0899870  38.5824450  80.5471650
  71.6758000  35.0497640  87.2479240  72.3130220  35.6631780  87.6138430
  71.8232890  35.0858300  86.3028470  74.2182550  36.9411430  74.0302380
  75.1431860  36.8092610  73.8220670  74.1958340  37.0204250  74.9838830
  74.2921040  37.7122090  76.6559090  73.4972540  37.6467210  77.1852000
  74.4964320  38.6472730  76.6444440  71.2339460  51.7513640  80.6497480
  71.8298530  51.4298210  79.9731900  71.4917610  51.2785460  81.4410750
  57.5337660  35.0111950  86.6334920  57.1852480  35.4675770  87.3993100
  57.2025360  34.1169080  86.7157350  62.8408060  49.7391140  86.3997830
  62.5999420  50.0065700  85.5128350  63.7810700  49.9096870  86.4548690
  74.1012220  51.7585520  87.2008470  73.6070500  52.1554390  86.4835600
  73.4925510  51.1334730  87.5945750  58.9790060  51.1293800  87.9185890
  58.3850380  50.9978500  88.6575930  58.9713900  50.2931940  87.4527990
  68.4245080  34.4226030  86.1215920  67.5504920  34.7561140  85.9188850
  68.3155830  33.9499210  86.9467790  69.3317060  36.6296900  87.5057640
  69.0030420  35.8148660  87.1259370  70.2799360  36.5866710  87.3823330
  71.7851670  52.4008940  84.4795210  71.3254640  53.1524750  84.1053230
  71.1564130  51.6815410  84.4210010  58.6102290  48.4952180  86.8693930
  57.8836350  47.8757470  86.8019880  58.6711440  48.8892790  85.9992010
  62.2147390  50.7097180  83.6543340  62.7312410  50.0984540  83.1291600
  62.8644770  51.2125960  84.1454350  64.9542890  51.6005670  84.4812320
  65.2420700  51.3459970  83.6045330  65.4666110  51.0483030  85.0717890
  66.1719900  35.3395870  85.0608830  65.3891690  35.8141370  85.3405590
  65.8782830  34.4350700  84.9522010  70.7240970  36.0418970  83.1057920
  71.1649060  35.9864070  82.2579520  70.4548560  36.9576980  83.1768100
  72.5879540  35.6734210  81.1166740  72.5267940  34.7295430  80.9697760
  73.3671570  35.7814300  81.6620200  56.8932290  51.8126570  80.0790690
  56.7254330  51.1797250  80.7772580  56.0266800  52.0185970  79.7284880
  57.5160310  35.6443350  77.5822550  58.2739670  35.7572230  77.0086580
  57.0537480  36.4812550  77.5365980  64.0574120  37.7582620  80.5724860
  63.2448630  37.3839510  80.2320740  64.5615760  37.0027700  80.8746050
  68.5599100  34.4225070  81.8107930  69.1628470  34.9945280  82.2856450
  67.8192090  34.9864510  81.5881830  71.7033700  34.8246630  77.0848210
  71.8984330  35.7230080  77.3515640  70.9163570  34.5933710  77.5781160
  58.4994990  50.5059800  77.5240830  57.9742610  50.8867830  76.8202790
  58.4239570  51.1310570  78.2450540  59.8885460  36.1707400  76.1224520
  60.4178220  35.3837200  75.9932470  60.5213780  36.8498590  76.3560050
  62.0823300  35.9082540  79.1769910  61.4526040  35.2069850  79.3440040
  61.5428440  36.6686670  78.9603070  73.2560310  52.0647340  78.8454770
  73.4312500  51.3785080  78.2015690  72.5581880  52.5894390  78.4531440
  61.0987960  52.4542180  76.3990080  61.8306780  52.1701460  75.8513970
  61.3581630  52.2155460  77.2889460  60.2602750  48.5706910  76.4036410
  59.6311630  49.0392010  76.9522240  60.3750580  47.7256130  76.8382600
  56.2361300  42.2718940  64.9804730  56.8077410  41.5041140  64.9808370
  56.2362840  42.5707700  64.0711340  57.4786170  37.6803300  66.7673660
  57.2989010  36.7829050  67.0476420  57.0766250  38.2275170  67.4420610
  66.3184670  39.8819160  64.6685970  66.6949490  39.0091040  64.5559640
  66.2204180  40.2177860  63.7776410  70.1008790  37.3769600  61.6014310
  70.9218410  36.8866170  61.6439790  70.1342870  37.9667260  62.3546150
  74.3908340  39.3936350  68.1657940  73.6860510  39.7818060  67.6473050
  74.6566260  40.0886640  68.7678870  60.5733510  35.8629720  68.7292010
  60.5751950  36.3802110  67.9237910  59.7437820  35.3859900  68.7061940
  70.3370270  39.3169980  64.3741850  69.6325840  39.6054870  64.9544960
  70.6982430  40.1270090  64.0141410  60.2548840  37.5739680  66.7362460
  60.5965650  38.4181730  66.4416330  59.3164650  37.7223420  66.8527800
  61.0355460  47.4705700  68.7214690  61.6529460  48.1456780  68.4399140
  60.1748580  47.8793680  68.6302190  71.9533050  48.9345110  66.6369330
  71.2696570  49.6044220  66.6286000  72.4927340  49.1325760  65.8714190
  73.4057190  38.7624770  64.7651060  72.4582100  38.7963750  64.8966490
  73.7307180  39.5763720  65.1500420  68.8877230  45.6819080  66.6797120
  69.3046020  45.4679190  65.8450580  69.6117050  45.9391870  67.2505740
  72.8339330  44.0806300  66.7713360  72.0057960  44.1499390  66.2963490
  73.4289810  44.6660610  66.3029190  69.7981340  40.8675620  67.7168230
  69.3852520  41.6929330  67.9708220  69.0657290  40.2820660  67.5244590
  70.4881440  50.9134950  68.4049210  70.0112000  51.7207140  68.2121820
  69.8043230  50.2613280  68.5575420  61.4914260  47.0784770  71.3933910
  60.5942790  47.3024740  71.6407310  61.5167130  47.2019710  70.4445310
  60.3185480  43.9498090  69.9691280  60.1793250  44.8220890  70.3378680
  59.4366840  43.6070900  69.8239220  62.1165830  49.8919790  72.1776430
  62.0881260  50.2962740  71.3104860  61.9530800  48.9630150  72.0148030
  74.0680650  50.6746890  73.4740600  74.5440370  51.1529780  74.1529680
  74.6887810  50.6064380  72.7486100  56.2704130  45.7195640  65.8862190
  56.3484550  45.8544410  64.9417910  56.8845810  45.0111530  66.0790310
  73.4713900  47.8659740  70.6340610  73.5976960  47.6271620  69.7157790
  73.5135280  47.0344280  71.1062690  67.3330640  51.5687740  69.2035420
  67.8475310  51.4795750  70.0057850  66.4899720  51.9147440  69.4963330
  73.3237910  39.9192200  71.5990350  72.7082180  40.4271870  71.0705810
  73.0034330  39.0190530  71.5416290  56.3263650  46.7609810  68.4256650
  56.4894690  46.2915170  67.6076020  56.7916100  46.2533370  69.0905490
  61.0982420  35.8915570  63.4617220  60.6550570  36.6725110  63.1301740
  61.6567410  36.2145460  64.1688160  65.3852230  38.7584090  69.0652540
  64.9231600  38.9667110  69.8772480  64.9830340  37.9443440  68.7623210
  70.3856740  39.9793040  70.1949200  69.5350330  39.6798790  70.5158270
  70.2258530  40.2235050  69.2833020  67.4806450  41.4794790  72.2947990
  67.8059860  40.6458540  71.9550220  68.2686780  42.0023310  72.4426320
  63.1358320  36.4362900  65.3206820  63.4330650  37.3425730  65.2398840
  63.6843880  35.9481680  64.7066390  63.3295850  41.9134720  71.8558740
  63.2339450  40.9729450  71.7059140  64.1727830  42.1349790  71.4606810
  58.4606390  38.3248390  70.0092520  58.0669780  39.1723600  70.2165300
  57.7724790  37.6874760  70.2001160  65.0351440  38.4083360  73.0789260
  64.3449760  38.2155560  73.7135350  65.7783740  38.6918000  73.6113560
  55.7623440  36.2476850  64.0422600  55.4736490  36.8179710  64.7547580
  56.5069200  35.7681300  64.4053830  67.3114410  42.2481800  65.9143180
  66.5795530  42.7568610  66.2633280  66.9138750  41.4311780  65.6131960
  67.7740320  37.7015480  65.3266120  67.7913060  38.1524130  66.1707970
  67.5255900  36.8021120  65.5399560  71.2011070  35.1147660  71.1652500
  71.5256840  34.3837320  71.6910480  71.2367580  34.7961300  70.2633490
  57.9002630  46.1361240  70.5852460  57.5157420  45.4954910  71.1835420
  58.2114820  46.8397360  71.1547190  56.9140260  37.7281470  62.1954550
  56.6287180  37.3637140  63.0333170  56.8519120  36.9961930  61.5817690
  61.8399140  42.0246420  68.3845290  61.5356210  42.9038400  68.6095650
  62.7945600  42.0846210  68.4202730  71.1268910  45.2272770  64.7738530
  71.8468030  45.7228060  64.3834640  70.9250730  44.5490660  64.1292400
  66.5087710  45.2981830  70.6607530  66.4425020  44.3777500  70.4065120
  65.8792850  45.3957270  71.3752170  57.8962870  42.8649160  69.5316650
  57.5377810  43.5303010  70.1189990  57.6017430  42.0332710  69.9029270
  61.0975990  43.3233400  72.4156200  60.7976130  43.4690580  71.5184020
  61.8687230  42.7638690  72.3229590  66.4404440  48.1202400  70.4111330
  66.4548980  47.1883360  70.1930240  65.7329540  48.2062160  71.0501100
  72.6515650  44.7609740  69.7579910  71.9263840  45.3538520  69.5609300
  73.1791110  44.7533280  68.9593280  65.8738340  49.7619970  67.5051830
  66.5180560  49.9679350  68.1825250  66.2367780  49.0008370  67.0522680
  59.4717510  34.5951280  60.7482050  59.3432140  34.5869180  61.6966970
  58.6479530  34.9334370  60.3973060  67.1470420  47.7652320  66.2229280
  67.7892650  47.0645480  66.3361450  67.6719770  48.5450760  66.0426170
  68.9208040  48.5647220  69.4265340  69.2564280  49.1513910  70.1043260
  68.0008380  48.4339930  69.6563130  56.4711440  36.3542400  70.2088750
  55.7569960  36.5539320  70.8141360  56.8906480  35.5781970  70.5803550
  56.7584030  50.3422660  71.1955280  56.8675150  49.4017400  71.0550670
  56.1064590  50.6077410  70.5469010  64.7496620  48.6138550  72.5953400
  64.4293490  47.8947790  73.1399090  64.0754980  49.2893620  72.6689460
  67.9650220  38.8464710  67.9590200  68.3331040  38.0259920  68.2869770
  67.1048420  38.9066600  68.3745850  64.9252210  41.5004300  68.1828170
  65.4237460  41.9750120  68.8480020  65.0675160  40.5767820  68.3898200
  72.1319070  37.7172260  69.0256560  71.6292670  38.4577660  69.3650370
  72.9475730  38.1056260  68.7093350  58.9042470  51.4091570  73.0074890
  59.7055200  51.7303620  73.4210290  58.3894290  51.0487150  73.7294800
  67.7407100  47.5171440  72.9550300  67.1345260  47.5403040  72.2146050
  67.4361210  46.7854480  73.4917550  69.1707470  51.2451730  71.5659710
  70.1229220  51.1609750  71.5159950  69.0235690  51.9093440  72.2393500
  56.6240280  43.8965030  71.9510940  57.1279300  43.3172310  72.5227170
  55.8847700  44.1805260  72.4887310  63.6778220  45.3036020  71.4846460
  62.9123890  45.8721020  71.4001130  63.8594180  45.0112230  70.5914690
  70.8201570  47.0341350  72.0421480  71.5611040  47.3717110  71.5388940
  70.0574250  47.2033410  71.4891250  58.6563360  42.0394620  72.8461010
  58.6968700  41.7408490  73.7546240  59.5108860  42.4402230  72.6868530
  60.5969170  40.6186720  70.8135500  60.0665630  40.1277670  70.1858840
  61.2657240  41.0470920  70.2793430  69.4947230  45.0856180  70.5776690
  69.9088250  45.2401260  71.4267110  68.5598230  45.2111400  70.7402470
  69.9669400  42.4252340  72.5815840  70.5490170  41.6704660  72.4936320
  70.1431170  42.9559780  71.8047320  61.0841470  37.5849090  70.8932790
  60.9898340  36.9669840  70.1683660  60.5038860  38.3115380  70.6662700
  63.8502910  36.1422330  67.9260180  63.4020210  36.1646590  67.0805730
  63.2168110  35.7441350  68.5230480  64.2562460  45.0376660  68.5472620
  64.6750570  45.8809390  68.3748860  63.3371090  45.1748700  68.3179400
  66.5926360  42.7692840  69.9310460  66.7122570  42.1733980  70.6705300
  67.4520360  42.8062530  69.5111760  68.9314260  43.3230030  68.5072970
  68.4049480  43.8472650  67.9038110  69.2745600  43.9557420  69.1382700
  62.1069880  51.3429670  69.6630350  61.5690970  52.0675730  69.3439050
  62.3603840  50.8660010  68.8727690  63.3595130  39.3114190  71.1886280
  63.9494820  39.0030040  71.8764100  62.5415370  38.8393940  71.3446180
  68.1788560  38.9280000  71.4219300  67.4904080  38.2661540  71.3569290
  68.8994580  38.4818270  71.8667760  64.9632090  52.5780880  69.9217000
  64.8890790  53.4816020  70.2289370  64.0610930  52.2592780  69.8939070
  72.4911770  50.2743060  70.2509560  71.8913760  50.3335620  69.5073480
  72.6205670  49.3348040  70.3806410  74.1929650  45.6158460  62.9355400
  74.5638480  44.8325780  62.5291370  74.8331580  46.3047560  62.7572700
  71.1763410  46.9995040  68.3485720  70.3623250  47.4292200  68.6111510
  71.5837610  47.6113450  67.7354770  57.7249950  43.6698860  66.8624470
  58.0922990  43.5826260  67.7420490  57.1560770  42.9065410  66.7631330
  72.5253810  42.1383240  69.8754940  72.2939900  41.9095990  68.9752890
  72.7858360  43.0582790  69.8299830  57.2765950  40.5807950  70.7682890
  56.3822000  40.5474710  71.1076600  57.8163500  40.7794740  71.5334140
  70.9641880  37.3639670  72.6534640  71.8412060  37.3723070  73.0368640
  70.9762720  36.6270510  72.0426990  72.4105150  41.2169210  63.5422660
  72.9342630  40.7231860  62.9112830  72.9964570  41.3519570  64.2870230
  72.5894870  41.3009080  67.0642210  71.6397580  41.2672620  67.1787200
  72.7707880  42.2109190  66.8291980  57.7805660  34.8556280  65.1166110
  58.4281850  34.3053660  64.6761270  58.2007500  35.1099430  65.9381920
  71.6758000  35.0497640  68.4735750  72.3130220  35.6631780  68.8394940
  71.8232890  35.0858300  67.5284980  57.5337660  35.0111950  67.8591430
  57.1852480  35.4675770  68.6249610  57.2025360  34.1169080  67.9413860
  59.1402030  48.1831550  72.0244620  59.0971660  47.8124460  72.9059080
  59.2713040  49.1209120  72.1646440  62.8408060  49.7391140  67.6254340
  62.5999420  50.0065700  66.7384860  63.7810700  49.9096870  67.6805200
  65.0462480  36.2023830  71.3810850  64.9851370  36.7945660  72.1306260
  65.9862860  36.0949790  71.2361110  67.6837040  35.8593890  71.0203140
  68.2977450  36.1773180  70.3584220  68.2286600  35.3742480  71.6399000
  74.1012220  51.7585520  68.4264980  73.6070500  52.1554390  67.7092110
  73.4925510  51.1334730  68.8202260  58.2058300  34.5388150  71.1342200
  58.7541290  34.3576200  70.3708310  58.2713610  33.7482260  71.6698510
  58.9790060  51.1293800  69.1442400  58.3850380  50.9978500  69.8832440
  58.9713900  50.2931940  68.6784500  68.4245080  34.4226030  67.3472430
  67.5504920  34.7561140  67.1445360  68.3155830  33.9499210  68.1724300
  69.3317060  36.6296900  68.7314150  69.0030420  35.8148660  68.3515880
  70.2799360  36.5866710  68.6079840  58.6102290  48.4952180  68.0950440
  57.8836350  47.8757470  68.0276390  58.6711440  48.8892790  67.2248520
  66.1719900  35.3395870  66.2865340  65.3891690  35.8141370  66.5662100
  65.8782830  34.4350700  66.1778520  70.7240970  36.0418970  64.3314430
  71.1649060  35.9864070  63.4836030  70.4548560  36.9576980  64.4024610
  72.5879540  35.6734210  62.3423250  72.5267940  34.7295430  62.1954270
  73.3671570  35.7814300  62.8876710  68.5599100  34.4225070  63.0364440
  69.1628470  34.9945280  63.5112960  67.8192090  34.9864510  62.8138340
  65.0215250  52.5221770  73.0737030  65.9482560  52.2866040  73.1172990
  65.0065680  53.3493770  72.5923060  62.2078860  35.1866520  72.8378910
  61.9263130  35.6900120  72.0739730  62.5898560  34.3888270  72.4721040
  68.8094320  34.6020100  73.4159380  68.6959770  34.9214710  74.3110900
  69.6264060  35.0032610  73.1196660  71.5892810  51.7491630  72.8978070
  72.3818130  51.2540860  72.6904030  71.8825960  52.4281770  73.5053680
  58.2728290  39.6713290  40.3221540  57.3844990  40.0129260  40.2201420
  58.5569480  39.4713610  39.4302370  66.3126570  39.3987780  38.0190840
  65.3730240  39.5601740  38.1043300  66.6309830  40.1173460  37.4726830
  72.1136620  35.1820700  36.8472720  71.8009280  35.2747530  37.7471790
  72.8749090  35.7601730  36.7970150  58.6318760  42.5480500  41.3050060
  58.5116360  43.2742590  40.6931330  58.3219650  41.7783410  40.8277970
  64.2141240  35.5126270  39.5679560  63.5895420  35.5086140  40.2932870
  64.1271360  34.6457230  39.1715530  60.8896640  41.0149140  42.4154980
  60.6637560  40.7986310  43.3201600  60.1089170  41.4477600  42.0700950
  63.8111950  39.9248080  38.5358940  63.9324770  39.8834560  39.4844760
  63.4260460  40.7872230  38.3805670  62.8233450  42.2349220  37.9342240
  62.2550350  41.7867470  37.3078150  63.5322450  42.5942000  37.4007390
  66.5878850  36.6210730  40.1424430  65.7743460  36.1223900  40.0669740
  66.3940800  37.4608980  39.7260780  65.2987830  47.1654070  39.1174760
  65.6403530  47.9096300  38.6218080  64.4700540  47.4785190  39.4799590
  71.5741510  42.3042220  37.9066450  71.4905230  42.7356440  37.0562890
  72.2935700  42.7640570  38.3393270  63.5705730  44.2513630  41.5016040
  64.0268510  45.0618880  41.7276230  63.2193940  43.9336770  42.3334530
  58.3917430  44.6813890  39.5089820  57.7845380  45.4212790  39.5185120
  58.8666780  44.7713250  38.6828020  71.3312250  37.8021650  39.9934270
  70.7025410  37.9067320  39.2792500  70.8364170  38.0218430  40.7828150
  63.2996280  40.0807600  41.4092150  62.5912430  40.5493940  41.8505760
  63.5840760  39.4229610  42.0437340  67.3311710  36.8058260  42.8487940
  67.2079490  36.8244390  41.8997450  68.2796270  36.8537200  42.9686340
  61.5031300  38.3892680  38.7842860  62.3521830  38.8262830  38.7183050
  61.1362570  38.7012940  39.6114920  60.4022720  44.6425040  37.2578390
  61.1685990  44.5306400  37.8203820  60.4797410  43.9463010  36.6055160
  59.0969480  42.0750110  37.9411280  59.1773070  41.1277620  38.0528680
  59.9889230  42.4056990  38.0471940  63.5263900  46.6179220  36.7313740
  63.4214540  46.0031570  37.4575120  63.3588120  46.0945110  35.9476750
  66.7666630  45.6799250  37.3355730  66.2176730  46.1268550  37.9798470
  67.3885890  45.1748500  37.8593400  62.4341750  44.6390170  39.2321030
  62.8558170  44.4730040  40.0752420  62.5592590  43.8290400  38.7376170
  64.9469390  43.6627780  36.4798130  65.4675050  42.9476800  36.1139280
  65.5937790  44.3013650  36.7798640  68.8088960  35.5231630  38.7066070
  69.0891250  34.6799530  39.0625490  68.0354690  35.7554740  39.2204820
  60.1283450  37.8124020  36.1657070  60.4309350  37.8191450  35.2576220
  60.8678040  37.4621880  36.6624730  63.3468380  36.7558640  37.1513270
  62.9990380  36.0782630  36.5715720  63.5481150  36.2948150  37.9656660
  59.1513580  47.1166440  36.9986870  59.5888450  47.6596110  37.6544450
  59.6361310  46.2913390  37.0083210  69.6364460  38.0787580  37.7696130
  70.0549340  37.8918560  36.9292790  69.3300520  37.2266630  38.0799060
  58.4439310  39.5510760  37.3997350  59.1531010  39.1293980  36.9144630
  57.7279250  39.6185990  36.7680700  74.2182550  36.9411430  36.4815400
  75.1431860  36.8092610  36.2733690  74.1958340  37.0204250  37.4351850
  74.2921040  37.7122090  39.1072110  73.4972540  37.6467210  39.6365020
  74.4964320  38.6472730  39.0957460  71.7033700  34.8246630  39.5361230
  71.8984330  35.7230080  39.8028660  70.9163570  34.5933710  40.0294180
  62.0823300  35.9082540  41.6282930  61.4526040  35.2069850  41.7953060
  61.5428440  36.6686670  41.4116090  60.2602750  48.5706910  38.8549430
  59.6311630  49.0392010  39.4035260  60.3750580  47.7256130  39.2895620
  67.7152470  42.6212570  25.0050630  67.6346520  41.7067180  24.7342340
  67.3016890  43.1179640  24.2990340  65.8470510  44.3991590  26.8859900
  65.0712610  43.9192030  27.1758470  66.4983440  43.7197240  26.7116060
  69.8677940  48.8051780  25.6659030  69.4059470  48.0339020  25.9946200
  70.6803490  48.8317850  26.1711480  66.3184670  39.8819160  27.1198990
  66.6949490  39.0091040  27.0072660  66.2204180  40.2177860  26.2289430
  70.1008790  37.3769600  24.0527330  70.9218410  36.8866170  24.0952810
  70.1342870  37.9667260  24.8059170  74.3908340  39.3936350  30.6170960
  73.6860510  39.7818060  30.0986070  74.6566260  40.0886640  31.2191890
  60.5733510  35.8629720  31.1805030  60.5751950  36.3802110  30.3750930
  59.7437820  35.3859900  31.1574960  66.9604600  45.9749030  22.6794930
  66.3421870  46.4398480  22.1157650  67.4727850  46.6676510  23.0964440
  70.3370270  39.3169980  26.8254870  69.6325840  39.6054870  27.4057980
  70.6982430  40.1270090  26.4654430  71.9533050  48.9345110  29.0882350
  71.2696570  49.6044220  29.0799020  72.4927340  49.1325760  28.3227210
  73.4057190  38.7624770  27.2164080  72.4582100  38.7963750  27.3479510
  73.7307180  39.5763720  27.6013440  63.9376730  35.0621950  25.5120070
  64.2451710  34.5068840  24.7955570  63.0077430  35.1966410  25.3293060
  70.7837210  47.5005460  22.8917700  70.6733540  46.5579790  23.0167120
  70.7805460  47.8621100  23.7780460  68.8877230  45.6819080  29.1310140
  69.3046020  45.4679190  28.2963600  69.6117050  45.9391870  29.7018760
  66.3257490  43.1270780  22.2480190  65.3986770  43.0608160  22.4768660
  66.4782310  44.0650910  22.1335430  72.8339330  44.0806300  29.2226380
  72.0057960  44.1499390  28.7476510  73.4289810  44.6660610  28.7542210
  70.3554780  44.6891080  22.7515440  69.7367200  44.3510630  22.1041740
  70.3379230  44.0450840  23.4594630  69.7981340  40.8675620  30.1681250
  69.3852520  41.6929330  30.4221240  69.0657290  40.2820660  29.9757610
  61.9314130  43.6535520  25.0299920  61.5271130  42.9412770  24.5345820
  62.0177250  43.3088760  25.9187960  68.5319480  43.9277890  19.7588190
  68.9712760  43.0900320  19.6126010  69.2447900  44.5607290  19.8452330
  66.6414860  48.8673960  23.7269430  67.0810770  49.6098290  23.3124820
  66.5801750  49.1100530  24.6508390  72.1136620  35.1820700  18.0729230
  71.8009280  35.2747530  18.9728300  72.8749090  35.7601730  18.0226660
  69.3085040  51.8543080  21.0832440  69.1486180  51.5646020  21.9814270
  69.1431750  51.0783210  20.5477670  69.0111170  49.3630640  19.6430440
  68.3176330  49.3607930  18.9832720  69.7534030  48.9389960  19.2124610
  73.3237910  39.9192200  34.0503370  72.7082180  40.4271870  33.5218830
  73.0034330  39.0190530  33.9929310  70.3856740  39.9793040  32.6462220
  69.5350330  39.6798790  32.9671290  70.2258530  40.2235050  31.7346040
  67.4806450  41.4794790  34.7461010  67.8059860  40.6458540  34.4063240
  68.2686780  42.0023310  34.8939340  64.2141240  35.5126270  20.7936070
  63.5895420  35.5086140  21.5189380  64.1271360  34.6457230  20.3972040
  63.1358320  36.4362900  27.7719840  63.4330650  37.3425730  27.6911860
  63.6843880  35.9481680  27.1579410  68.1194400  41.0212510  22.2402140
  67.5203290  41.7448310  22.0565760  68.6674010  40.9589290  21.4578590
  66.7259270  39.6576050  24.2705420  67.1188840  39.9748250  23.4574110
  67.0876120  38.7787930  24.3849940  65.0351440  38.4083360  35.5302280
  64.3449760  38.2155560  36.1648370  65.7783740  38.6918000  36.0626580
  67.3114410  42.2481800  28.3656200  66.5795530  42.7568610  28.7146300
  66.9138750  41.4311780  28.0644980  67.7740320  37.7015480  27.7779140
  67.7913060  38.1524130  28.6220990  67.5255900  36.8021120  27.9912580
  62.8233450  42.2349220  19.1598750  62.2550350  41.7867470  18.5334660
  63.5322450  42.5942000  18.6263900  71.2011070  35.1147660  33.6165520
  71.5256840  34.3837320  34.1423500  71.2367580  34.7961300  32.7146510
  64.0499770  42.9837780  28.5174100  64.4169900  42.5096350  29.2635440
  63.8604830  43.8579350  28.8582440  71.1268910  45.2272770  27.2251550
  71.8468030  45.7228060  26.8347660  70.9250730  44.5490660  26.5805420
  66.5878850  36.6210730  21.3680940  65.7743460  36.1223900  21.2926250
  66.3940800  37.4608980  20.9517290  69.3027240  40.9930380  19.6643100
  70.1906860  41.3047610  19.4894440  69.2732330  40.1202630  19.2723680
  65.2987830  47.1654070  20.3431270  65.6403530  47.9096300  19.8474590
  64.4700540  47.4785190  20.7056100  71.5741510  42.3042220  19.1322960
  71.4905230  42.7356440  18.2819400  72.2935700  42.7640570  19.5649780
  72.6515650  44.7609740  32.2092930  71.9263840  45.3538520  32.0122320
  73.1791110  44.7533280  31.4106300  72.6028760  49.1584480  21.8605090
  71.9604920  48.5040100  22.1348810  72.2159420  49.5639570  21.0845760
  68.1815240  46.4869910  25.7076780  68.5339060  45.8898040  25.0478150
  67.2977570  46.1614140  25.8785030  64.2678520  47.2467600  23.1147190
  64.9549650  47.7936810  23.4954780  63.4810940  47.7908330  23.1496800
  63.5705730  44.2513630  22.7272550  64.0268510  45.0618880  22.9532740
  63.2193940  43.9336770  23.5591040  70.9926140  48.0500940  18.3981440
  70.7663720  47.3331380  18.9906080  70.6022340  47.8013380  17.5603190
  70.5742390  45.9672880  20.0595600  70.2864090  46.4285570  20.8473480
  71.3694560  45.5070650  20.3279820  62.7910790  49.4599000  19.9899570
  62.7820890  50.1928690  19.3744080  61.8709150  49.2130580  20.0826530
  67.9650220  38.8464710  30.4103220  68.3331040  38.0259920  30.7382790
  67.1048420  38.9066600  30.8258870  71.3312250  37.8021650  21.2190780
  70.7025410  37.9067320  20.5049010  70.8364170  38.0218430  22.0084660
  65.7770390  49.5227240  18.6524760  65.8782370  49.3191230  17.7226740
  64.8772130  49.2685520  18.8572540  63.2996280  40.0807600  22.6348660
  62.5912430  40.5493940  23.0762270  63.5840760  39.4229610  23.2693850
  67.3311710  36.8058260  24.0744450  67.2079490  36.8244390  23.1253960
  68.2796270  36.8537200  24.1942850  72.1319070  37.7172260  31.4769580
  71.6292670  38.4577660  31.8163390  72.9475730  38.1056260  31.1606370
  70.4241080  42.9605440  24.9230940  69.4831220  42.9755670  25.0978630
  70.7385150  42.1741400  25.3691240  60.4022720  44.6425040  18.4834900
  61.1685990  44.5306400  19.0460330  60.4797410  43.9463010  17.8311670
  63.0086500  51.3975810  18.0927900  63.8015110  51.6864640  17.6409690
  62.4890850  50.9667980  17.4140380  72.0616670  50.6245940  19.5164640
  71.7758180  50.2111080  18.7018820  71.8636220  51.5533650  19.3965160
  63.5263900  46.6179220  17.9570250  63.4214540  46.0031570  18.6831630
  63.3588120  46.0945110  17.1733260  66.7666630  45.6799250  18.5612240
  66.2176730  46.1268550  19.2054980  67.3885890  45.1748500  19.0849910
  62.4341750  44.6390170  20.4577540  62.8558170  44.4730040  21.3008930
  62.5592590  43.8290400  19.9632680  64.9469390  43.6627780  17.7054640
  65.4675050  42.9476800  17.3395790  65.5937790  44.3013650  18.0055150
  69.9669400  42.4252340  35.0328860  70.5490170  41.6704660  34.9449340
  70.1431170  42.9559780  34.2560340  63.8502910  36.1422330  30.3773200
  63.4020210  36.1646590  29.5318750  63.2168110  35.7441350  30.9743500
  64.2562460  45.0376660  30.9985640  64.6750570  45.8809390  30.8261880
  63.3371090  45.1748700  30.7692420  66.5926360  42.7692840  32.3823480
  66.7122570  42.1733980  33.1218320  67.4520360  42.8062530  31.9624780
  68.9314260  43.3230030  30.9585990  68.4049480  43.8472650  30.3551130
  69.2745600  43.9557420  31.5895720  68.1788560  38.9280000  33.8732320
  67.4904080  38.2661540  33.8082310  68.8994580  38.4818270  34.3180780
  68.8088960  35.5231630  19.9322580  69.0891250  34.6799530  20.2882000
  68.0354690  35.7554740  20.4461330  65.5117420  51.7439390  19.9956380
  66.4068210  52.0824360  20.0175140  65.5435050  51.0218800  19.3680660
  73.7313220  48.0160880  18.0392290  72.9006180  48.0837530  18.5099520
  73.9085050  48.9065000  17.7359150  73.1869680  44.7608360  20.5426490
  73.9488590  45.3305010  20.6486180  73.2024050  44.1935560  21.3134800
  74.1929650  45.6158460  25.3868420  74.5638480  44.8325780  24.9804390
  74.8331580  46.3047560  25.2085720  71.1763410  46.9995040  30.7998740
  70.3623250  47.4292200  31.0624530  71.5837610  47.6113450  30.1867790
  73.2388850  45.0542730  17.6999010  73.5137690  45.9621610  17.5718230
  73.0499590  44.9905260  18.6361000  69.6364460  38.0787580  18.9952640
  70.0549340  37.8918560  18.1549300  69.3300520  37.2266630  19.3055570
  73.1354190  42.9911720  22.6928440  72.7597790  42.2239650  22.2609730
  72.4057310  43.3734420  23.1803370  72.5253810  42.1383240  32.3267960
  72.2939900  41.9095990  31.4265910  72.7858360  43.0582790  32.2812850
  70.9641880  37.3639670  35.1047660  71.8412060  37.3723070  35.4881660
  70.9762720  36.6270510  34.4940010  72.4105150  41.2169210  25.9935680
  72.9342630  40.7231860  25.3625850  72.9964570  41.3519570  26.7383250
  72.5894870  41.3009080  29.5155230  71.6397580  41.2672620  29.6300220
  72.7707880  42.2109190  29.2805000  71.9005120  40.4742560  21.9328090
  72.3964240  40.2413430  22.7176970  71.7021190  39.6354400  21.5165730
  73.3292280  39.1103510  24.4665770  73.2191560  38.9559550  25.4048040
  74.0899870  38.5824450  24.2241180  71.6758000  35.0497640  30.9248770
  72.3130220  35.6631780  31.2907960  71.8232890  35.0858300  29.9798000
  74.2182550  36.9411430  17.7071910  75.1431860  36.8092610  17.4990200
  74.1958340  37.0204250  18.6608360  74.2921040  37.7122090  20.3328620
  73.4972540  37.6467210  20.8621530  74.4964320  38.6472730  20.3213970
  57.5337660  35.0111950  30.3104450  57.1852480  35.4675770  31.0762630
  57.2025360  34.1169080  30.3926880  65.0462480  36.2023830  33.8323870
  64.9851370  36.7945660  34.5819280  65.9862860  36.0949790  33.6874130
  67.6837040  35.8593890  33.4716160  68.2977450  36.1773180  32.8097240
  68.2286600  35.3742480  34.0912020  68.4245080  34.4226030  29.7985450
  67.5504920  34.7561140  29.5958380  68.3155830  33.9499210  30.6237320
  69.3317060  36.6296900  31.1827170  69.0030420  35.8148660  30.8028900
  70.2799360  36.5866710  31.0592860  66.1719900  35.3395870  28.7378360
  65.3891690  35.8141370  29.0175120  65.8782830  34.4350700  28.6291540
  70.7240970  36.0418970  26.7827450  71.1649060  35.9864070  25.9349050
  70.4548560  36.9576980  26.8537630  72.5879540  35.6734210  24.7936270
  72.5267940  34.7295430  24.6467290  73.3671570  35.7814300  25.3389730
  68.5599100  34.4225070  25.4877460  69.1628470  34.9945280  25.9625980
  67.8192090  34.9864510  25.2651360  71.7033700  34.8246630  20.7617740
  71.8984330  35.7230080  21.0285170  70.9163570  34.5933710  21.2550690
  62.2078860  35.1866520  35.2891930  61.9263130  35.6900120  34.5252750
  62.5898560  34.3888270  34.9234060  68.8094320  34.6020100  35.8672400
  68.6959770  34.9214710  36.7623920  69.6264060  35.0032610  35.5709680
  67.7152470  42.6212570   6.2307140  67.6346520  41.7067180   5.9598850
  67.3016890  43.1179640   5.5246850  65.8470510  44.3991590   8.1116410
  65.0712610  43.9192030   8.4014980  66.4983440  43.7197240   7.9372570
  59.8636340  44.7111400   8.9892170  59.0321220  44.4560110   9.3888680
  60.4717320  44.7822170   9.7250090  69.8677940  48.8051780   6.8915540
  69.4059470  48.0339020   7.2202710  70.6803490  48.8317850   7.3967990
  59.8437600  48.7451490   9.1850190  60.1465640  47.8549230   9.0060410
  60.5881190  49.3021710   8.9572440  58.2728290  39.6713290   2.7734560
  57.3844990  40.0129260   2.6714440  58.5569480  39.4713610   1.8815390
  56.2361300  42.2718940   8.6574260  56.8077410  41.5041140   8.6577900
  56.2362840  42.5707700   7.7480870  66.0941250  51.0909790   6.5119530
  65.4752690  51.5467290   5.9413970  66.9493030  51.2461250   6.1109230
  65.2879500  47.0748780   8.1186570  65.2187780  46.1338720   7.9575700
  66.0499360  47.1650190   8.6909140  57.4786170  37.6803300  10.4443190
  57.2989010  36.7829050  10.7245950  57.0766250  38.2275170  11.1190140
  66.3184670  39.8819160   8.3455500  66.6949490  39.0091040   8.2329170
  66.2204180  40.2177860   7.4545940  60.4489680  38.2544790   3.8072940
  60.5556430  39.1548520   4.1141700  59.5382040  38.2062760   3.5167590
  70.1008790  37.3769600   5.2783840  70.9218410  36.8866170   5.3209320
  70.1342870  37.9667260   6.0315680  58.0972840  40.1763800   9.0525530
  58.7782950  40.4402170   9.6712930  57.7820890  39.3364670   9.3863540
  62.2897410  41.2231160   8.1398120  62.7975630  41.7212130   8.7803140
  62.8210650  40.4466360   7.9637480  74.3908340  39.3936350  11.8427470
  73.6860510  39.7818060  11.3242580  74.6566260  40.0886640  12.4448400
  60.5733510  35.8629720  12.4061540  60.5751950  36.3802110  11.6007440
  59.7437820  35.3859900  12.3831470  66.9604600  45.9749030   3.9051440
  66.3421870  46.4398480   3.3414160  67.4727850  46.6676510   4.3220950
  61.8236360  45.5024900  10.5835040  61.4905740  46.1293820  11.2256110
  62.0003040  46.0286780   9.8036710  70.3370270  39.3169980   8.0511380
  69.6325840  39.6054870   8.6314490  70.6982430  40.1270090   7.6910940
  60.2548840  37.5739680  10.4131990  60.5965650  38.4181730  10.1185860
  59.3164650  37.7223420  10.5297330  61.0355460  47.4705700  12.3984220
  61.6529460  48.1456780  12.1168670  60.1748580  47.8793680  12.3071720
  71.9533050  48.9345110  10.3138860  71.2696570  49.6044220  10.3055530
  72.4927340  49.1325760   9.5483720  73.4057190  38.7624770   8.4420590
  72.4582100  38.7963750   8.5736020  73.7307180  39.5763720   8.8269950
  63.9376730  35.0621950   6.7376580  64.2451710  34.5068840   6.0212080
  63.0077430  35.1966410   6.5549570  69.4891790  50.7789240   9.0284040
  69.5018950  50.3751530   8.1606300  68.9367010  51.5536530   8.9245470
  70.7837210  47.5005460   4.1174210  70.6733540  46.5579790   4.2423630
  70.7805460  47.8621100   5.0036970  68.8877230  45.6819080  10.3566650
  69.3046020  45.4679190   9.5220110  69.6117050  45.9391870  10.9275270
  66.3257490  43.1270780   3.4736700  65.3986770  43.0608160   3.7025170
  66.4782310  44.0650910   3.3591940  72.8339330  44.0806300  10.4482890
  72.0057960  44.1499390   9.9733020  73.4289810  44.6660610   9.9798720
  70.3554780  44.6891080   3.9771950  69.7367200  44.3510630   3.3298250
  70.3379230  44.0450840   4.6851140  69.7981340  40.8675620  11.3937760
  69.3852520  41.6929330  11.6477750  69.0657290  40.2820660  11.2014120
  61.9314130  43.6535520   6.2556430  61.5271130  42.9412770   5.7602330
  62.0177250  43.3088760   7.1444470  62.3995830  47.3403080   8.4195640
  62.1024120  46.7348550   7.7403420  63.3495650  47.3780390   8.3085000
  60.6442750  40.4278730  10.0355470  61.1957340  40.5374070   9.2608720
  61.1586260  40.8016330  10.7510700  70.4881440  50.9134950  12.0818740
  70.0112000  51.7207140  11.8891350  69.8043230  50.2613280  12.2344950
  61.4914260  47.0784770  15.0703440  60.5942790  47.3024740  15.3176840
  61.5167130  47.2019710  14.1214840  66.6414860  48.8673960   4.9525940
  67.0810770  49.6098290   4.5381330  66.5801750  49.1100530   5.8764900
  62.1165830  49.8919790  15.8545960  62.0881260  50.2962740  14.9874390
  61.9530800  48.9630150  15.6917560  58.6318760  42.5480500   3.7563080
  58.5116360  43.2742590   3.1444350  58.3219650  41.7783410   3.2790990
  74.0680650  50.6746890  17.1510130  74.5440370  51.1529780  17.8299210
  74.6887810  50.6064380  16.4255630  56.2704130  45.7195640   9.5631720
  56.3484550  45.8544410   8.6187440  56.8845810  45.0111530   9.7559840
  57.5151760  47.4195830   5.9737900  57.1079840  47.5610420   5.1191500
  58.4064770  47.1355990   5.7709110  73.4713900  47.8659740  14.3110140
  73.5976960  47.6271620  13.3927320  73.5135280  47.0344280  14.7832220
  67.3330640  51.5687740  12.8804950  67.8475310  51.4795750  13.6827380
  66.4899720  51.9147440  13.1732860  69.3085040  51.8543080   2.3088950
  69.1486180  51.5646020   3.2070780  69.1431750  51.0783210   1.7734180
  61.7873420  51.6341610   4.0860570  61.6115900  50.7177150   3.8728370
  60.9329160  51.9928900   4.3258370  68.5761100  50.9893350   4.9435440
  69.0318050  50.2082730   5.2574060  68.9153620  51.7000170   5.4876620
  73.3237910  39.9192200  15.2759880  72.7082180  40.4271870  14.7475340
  73.0034330  39.0190530  15.2185820  56.3263650  46.7609810  12.1026180
  56.4894690  46.2915170  11.2845550  56.7916100  46.2533370  12.7675020
  61.0982420  35.8915570   7.1386750  60.6550570  36.6725110   6.8071270
  61.6567410  36.2145460   7.8457690  65.3852230  38.7584090  12.7422070
  64.9231600  38.9667110  13.5542010  64.9830340  37.9443440  12.4392740
  70.3856740  39.9793040  13.8718730  69.5350330  39.6798790  14.1927800
  70.2258530  40.2235050  12.9602550  67.4806450  41.4794790  15.9717520
  67.8059860  40.6458540  15.6319750  68.2686780  42.0023310  16.1195850
  63.1358320  36.4362900   8.9976350  63.4330650  37.3425730   8.9168370
  63.6843880  35.9481680   8.3835920  60.8896640  41.0149140   4.8668000
  60.6637560  40.7986310   5.7714620  60.1089170  41.4477600   4.5213970
  68.1194400  41.0212510   3.4658650  67.5203290  41.7448310   3.2822270
  68.6674010  40.9589290   2.6835100  63.3295850  41.9134720  15.5328270
  63.2339450  40.9729450  15.3828670  64.1727830  42.1349790  15.1376340
  66.7259270  39.6576050   5.4961930  67.1188840  39.9748250   4.6830620
  67.0876120  38.7787930   5.6106450  55.7623440  36.2476850   7.7192130
  55.4736490  36.8179710   8.4317110  56.5069200  35.7681300   8.0823360
  67.3114410  42.2481800   9.5912710  66.5795530  42.7568610   9.9402810
  66.9138750  41.4311780   9.2901490  63.7491800  38.9236000   7.9965200
  63.7527860  38.4825950   7.1469740  64.6442920  39.2453330   8.1037020
  59.5994180  38.8062490   6.9559410  59.2594230  39.2837720   7.7126460
  58.8371500  38.3527610   6.5960510  67.7740320  37.7015480   9.0035650
  67.7913060  38.1524130   9.8477500  67.5255900  36.8021120   9.2169090
  71.2011070  35.1147660  14.8422030  71.5256840  34.3837320  15.3680010
  71.2367580  34.7961300  13.9403020  64.0499770  42.9837780   9.7430610
  64.4169900  42.5096350  10.4891950  63.8604830  43.8579350  10.0838950
  56.9140260  37.7281470   5.8724080  56.6287180  37.3637140   6.7102700
  56.8519120  36.9961930   5.2587220  61.8399140  42.0246420  12.0614820
  61.5356210  42.9038400  12.2865180  62.7945600  42.0846210  12.0972260
  60.3680930  46.2307410   2.6581670  59.5943190  45.6905030   2.4980390
  61.0975560  45.7114020   2.3199430  71.1268910  45.2272770   8.4508060
  71.8468030  45.7228060   8.0604170  70.9250730  44.5490660   7.8061930
  66.5878850  36.6210730   2.5937450  65.7743460  36.1223900   2.5182760
  66.3940800  37.4608980   2.1773800  66.5087710  45.2981830  14.3377060
  66.4425020  44.3777500  14.0834650  65.8792850  45.3957270  15.0521700
  60.4118330  45.8987790   6.2960480  60.9297000  45.0956050   6.2417370
  59.9602350  45.8366930   7.1377310  61.0975990  43.3233400  16.0925730
  60.7976130  43.4690580  15.1953550  61.8687230  42.7638690  15.9999120
  66.4404440  48.1202400  14.0880860  66.4548980  47.1883360  13.8699770
  65.7329540  48.2062160  14.7270630  72.6515650  44.7609740  13.4349440
  71.9263840  45.3538520  13.2378830  73.1791110  44.7533280  12.6362810
  72.6028760  49.1584480   3.0861600  71.9604920  48.5040100   3.3605320
  72.2159420  49.5639570   2.3102270  68.1815240  46.4869910   6.9333290
  68.5339060  45.8898040   6.2734660  67.2977570  46.1614140   7.1041540
  64.2678520  47.2467600   4.3403700  64.9549650  47.7936810   4.7211290
  63.4810940  47.7908330   4.3753310  63.5705730  44.2513630   3.9529060
  64.0268510  45.0618880   4.1789250  63.2193940  43.9336770   4.7847550
  65.8738340  49.7619970  11.1821360  66.5180560  49.9679350  11.8594780
  66.2367780  49.0008370  10.7292210  59.4717510  34.5951280   4.4251580
  59.3432140  34.5869180   5.3736500  58.6479530  34.9334370   4.0742590
  67.1470420  47.7652320   9.8998810  67.7892650  47.0645480  10.0130980
  67.6719770  48.5450760   9.7195700  68.9208040  48.5647220  13.1034870
  69.2564280  49.1513910  13.7812790  68.0008380  48.4339930  13.3332660
  56.4711440  36.3542400  13.8858280  55.7569960  36.5539320  14.4910890
  56.8906480  35.5781970  14.2573080  56.7584030  50.3422660  14.8724810
  56.8675150  49.4017400  14.7320200  56.1064590  50.6077410  14.2238540
  64.7496620  48.6138550  16.2722930  64.4293490  47.8947790  16.8168620
  64.0754980  49.2893620  16.3458990  67.9650220  38.8464710  11.6359730
  68.3331040  38.0259920  11.9639300  67.1048420  38.9066600  12.0515380
  71.3312250  37.8021650   2.4447290  70.7025410  37.9067320   1.7305520
  70.8364170  38.0218430   3.2341170  63.2996280  40.0807600   3.8605170
  62.5912430  40.5493940   4.3018780  63.5840760  39.4229610   4.4950360
  64.9252210  41.5004300  11.8597700  65.4237460  41.9750120  12.5249550
  65.0675160  40.5767820  12.0667730  67.3311710  36.8058260   5.3000960
  67.2079490  36.8244390   4.3510470  68.2796270  36.8537200   5.4199360
  64.4188500  52.0413560   4.5728940  64.6730000  52.0034950   3.6508310
  63.4700980  51.9146890   4.5657190  72.1319070  37.7172260  12.7026090
  71.6292670  38.4577660  13.0419900  72.9475730  38.1056260  12.3862880
  70.4241080  42.9605440   6.1487450  69.4831220  42.9755670   6.3235140
  70.7385150  42.1741400   6.5947750  72.4266660  50.1314290   7.8241710
  72.5514080  50.9545460   8.2965520  73.2932220  49.9205020   7.4765860
  59.8984190  52.2245500   7.4958840  60.6346670  51.6760960   7.7667410
  60.2825110  53.0901510   7.3564830  56.7829670  48.2919070   3.3700350
  55.8569450  48.5340210   3.3605760  57.2486100  49.1193330   3.2485100
  58.9042470  51.4091570  16.6844420  59.7055200  51.7303620  17.0979820
  58.3894290  51.0487150  17.4064330  67.7407100  47.5171440  16.6319830
  67.1345260  47.5403040  15.8915580  67.4361210  46.7854480  17.1687080
  69.1707470  51.2451730  15.2429240  70.1229220  51.1609750  15.1929480
  69.0235690  51.9093440  15.9163030  63.6778220  45.3036020  15.1615990
  62.9123890  45.8721020  15.0770660  63.8594180  45.0112230  14.2684220
  70.8201570  47.0341350  15.7191010  71.5611040  47.3717110  15.2158470
  70.0574250  47.2033410  15.1660780  69.4947230  45.0856180  14.2546220
  69.9088250  45.2401260  15.1036640  68.5598230  45.2111400  14.4172000
  69.9669400  42.4252340  16.2585370  70.5490170  41.6704660  16.1705850
  70.1431170  42.9559780  15.4816850  63.8502910  36.1422330  11.6029710
  63.4020210  36.1646590  10.7575260  63.2168110  35.7441350  12.2000010
  64.2562460  45.0376660  12.2242150  64.6750570  45.8809390  12.0518390
  63.3371090  45.1748700  11.9948930  66.5926360  42.7692840  13.6079990
  66.7122570  42.1733980  14.3474830  67.4520360  42.8062530  13.1881290
  68.9314260  43.3230030  12.1842500  68.4049480  43.8472650  11.5807640
  69.2745600  43.9557420  12.8152230  62.1069880  51.3429670  13.3399880
  61.5690970  52.0675730  13.0208580  62.3603840  50.8660010  12.5497220
  68.1788560  38.9280000  15.0988830  67.4904080  38.2661540  15.0338820
  68.8994580  38.4818270  15.5437290  64.9632090  52.5780880  13.5986530
  64.8890790  53.4816020  13.9058900  64.0610930  52.2592780  13.5708600
  56.3659380  49.9055470   6.9020150  56.6962390  49.0376530   6.6698790
  56.7950380  50.1113990   7.7325110  60.9621300  48.2364480   4.5622120
  60.6616840  48.1129450   5.4626030  60.8558790  47.3773070   4.1537850
  56.8549590  50.7726060   9.6401780  56.4180580  50.9526860  10.4725930
  57.4227270  51.5300680   9.4983500  72.4911770  50.2743060  13.9279090
  71.8913760  50.3335620  13.1843010  72.6205670  49.3348040  14.0575940
  73.1869680  44.7608360   1.7683000  73.9488590  45.3305010   1.8742690
  73.2024050  44.1935560   2.5391310  56.6874020  43.2846290   5.9990660
  56.0322860  43.0157930   5.3550360  57.5251970  43.1750770   5.5492640
  74.1929650  45.6158460   6.6124930  74.5638480  44.8325780   6.2060900
  74.8331580  46.3047560   6.4342230  71.1763410  46.9995040  12.0255250
  70.3623250  47.4292200  12.2881040  71.5837610  47.6113450  11.4124300
  73.1354190  42.9911720   3.9184950  72.7597790  42.2239650   3.4866240
  72.4057310  43.3734420   4.4059880  57.7249950  43.6698860  10.5394000
  58.0922990  43.5826260  11.4190020  57.1560770  42.9065410  10.4400860
  72.5253810  42.1383240  13.5524470  72.2939900  41.9095990  12.6522420
  72.7858360  43.0582790  13.5069360  70.9641880  37.3639670  16.3304170
  71.8412060  37.3723070  16.7138170  70.9762720  36.6270510  15.7196520
  72.4105150  41.2169210   7.2192190  72.9342630  40.7231860   6.5882360
  72.9964570  41.3519570   7.9639760  72.5894870  41.3009080  10.7411740
  71.6397580  41.2672620  10.8556730  72.7707880  42.2109190  10.5061510
  71.9005120  40.4742560   3.1584600  72.3964240  40.2413430   3.9433480
  71.7021190  39.6354400   2.7422240  57.7805660  34.8556280   8.7935640
  58.4281850  34.3053660   8.3530800  58.2007500  35.1099430   9.6151450
  73.3292280  39.1103510   5.6922280  73.2191560  38.9559550   6.6304550
  74.0899870  38.5824450   5.4497690  71.6758000  35.0497640  12.1505280
  72.3130220  35.6631780  12.5164470  71.8232890  35.0858300  11.2054510
  71.2339460  51.7513640   5.5523520  71.8298530  51.4298210   4.8757940
  71.4917610  51.2785460   6.3436790  57.5337660  35.0111950  11.5360960
  57.1852480  35.4675770  12.3019140  57.2025360  34.1169080  11.6183390
  59.1402030  48.1831550  15.7014150  59.0971660  47.8124460  16.5828610
  59.2713040  49.1209120  15.8415970  62.8408060  49.7391140  11.3023870
  62.5999420  50.0065700  10.4154390  63.7810700  49.9096870  11.3574730
  65.0462480  36.2023830  15.0580380  64.9851370  36.7945660  15.8075790
  65.9862860  36.0949790  14.9130640  67.6837040  35.8593890  14.6972670
  68.2977450  36.1773180  14.0353750  68.2286600  35.3742480  15.3168530
  74.1012220  51.7585520  12.1034510  73.6070500  52.1554390  11.3861640
  73.4925510  51.1334730  12.4971790  58.2058300  34.5388150  14.8111730
  58.7541290  34.3576200  14.0477840  58.2713610  33.7482260  15.3468040
  58.9790060  51.1293800  12.8211930  58.3850380  50.9978500  13.5601970
  58.9713900  50.2931940  12.3554030  68.4245080  34.4226030  11.0241960
  67.5504920  34.7561140  10.8214890  68.3155830  33.9499210  11.8493830
  69.3317060  36.6296900  12.4083680  69.0030420  35.8148660  12.0285410
  70.2799360  36.5866710  12.2849370  71.7851670  52.4008940   9.3821250
  71.3254640  53.1524750   9.0079270  71.1564130  51.6815410   9.3236050
  58.6102290  48.4952180  11.7719970  57.8836350  47.8757470  11.7045920
  58.6711440  48.8892790  10.9018050  62.2147390  50.7097180   8.5569380
  62.7312410  50.0984540   8.0317640  62.8644770  51.2125960   9.0480390
  64.9542890  51.6005670   9.3838360  65.2420700  51.3459970   8.5071370
  65.4666110  51.0483030   9.9743930  66.1719900  35.3395870   9.9634870
  65.3891690  35.8141370  10.2431630  65.8782830  34.4350700   9.8548050
  70.7240970  36.0418970   8.0083960  71.1649060  35.9864070   7.1605560
  70.4548560  36.9576980   8.0794140  72.5879540  35.6734210   6.0192780
  72.5267940  34.7295430   5.8723800  73.3671570  35.7814300   6.5646240
  56.8932290  51.8126570   4.9816730  56.7254330  51.1797250   5.6798620
  56.0266800  52.0185970   4.6310920  57.5160310  35.6443350   2.4848590
  58.2739670  35.7572230   1.9112620  57.0537480  36.4812550   2.4392020
  64.0574120  37.7582620   5.4750900  63.2448630  37.3839510   5.1346780
  64.5615760  37.0027700   5.7772090  68.5599100  34.4225070   6.7133970
  69.1628470  34.9945280   7.1882490  67.8192090  34.9864510   6.4907870
  71.7033700  34.8246630   1.9874250  71.8984330  35.7230080   2.2541680
  70.9163570  34.5933710   2.4807200  58.4994990  50.5059800   2.4266870
  57.9742610  50.8867830   1.7228830  58.4239570  51.1310570   3.1476580
  62.0823300  35.9082540   4.0795950  61.4526040  35.2069850   4.2466080
  61.5428440  36.6686670   3.8629110  65.0215250  52.5221770  16.7506560
  65.9482560  52.2866040  16.7942520  65.0065680  53.3493770  16.2692590
  73.2560310  52.0647340   3.7480810  73.4312500  51.3785080   3.1041730
  72.5581880  52.5894390   3.3557480  68.8094320  34.6020100  17.0928910
  68.6959770  34.9214710  17.9880430  69.6264060  35.0032610  16.7966190
  71.5892810  51.7491630  16.5747600  72.3818130  51.2540860  16.3673560
  71.8825960  52.4281770  17.1823210  67.7152470  23.8469080  81.3281100
  67.6346520  22.9323690  81.0572810  67.3016890  24.3436150  80.6220810
  65.8470510  25.6248100  83.2090370  65.0712610  25.1448540  83.4988940
  66.4983440  24.9453750  83.0346530  59.8636340  25.9367910  84.0866130
  59.0321220  25.6816620  84.4862640  60.4717320  26.0078680  84.8224050
  69.8677940  30.0308290  81.9889500  69.4059470  29.2595530  82.3176670
  70.6803490  30.0574360  82.4941950  59.8437600  29.9708000  84.2824150
  60.1465640  29.0805740  84.1034370  60.5881190  30.5278220  84.0546400
  58.2728290  20.8969800  77.8708520  57.3844990  21.2385770  77.7688400
  58.5569480  20.6970120  76.9789350  56.2361300  23.4975450  83.7548220
  56.8077410  22.7297650  83.7551860  56.2362840  23.7964210  82.8454830
  66.0941250  32.3166300  81.6093490  65.4752690  32.7723800  81.0387930
  66.9493030  32.4717760  81.2083190  65.2879500  28.3005290  83.2160530
  65.2187780  27.3595230  83.0549660  66.0499360  28.3906700  83.7883100
  57.4786170  18.9059810  85.5417150  57.2989010  18.0085560  85.8219910
  57.0766250  19.4531680  86.2164100  66.3184670  21.1075670  83.4429460
  66.6949490  20.2347550  83.3303130  66.2204180  21.4434370  82.5519900
  60.4489680  19.4801300  78.9046900  60.5556430  20.3805030  79.2115660
  59.5382040  19.4319270  78.6141550  70.1008790  18.6026110  80.3757800
  70.9218410  18.1122680  80.4183280  70.1342870  19.1923770  81.1289640
  58.0972840  21.4020310  84.1499490  58.7782950  21.6658680  84.7686890
  57.7820890  20.5621180  84.4837500  62.2897410  22.4487670  83.2372080
  62.7975630  22.9468640  83.8777100  62.8210650  21.6722870  83.0611440
  74.3908340  20.6192860  86.9401430  73.6860510  21.0074570  86.4216540
  74.6566260  21.3143150  87.5422360  60.5733510  17.0886230  87.5035500
  60.5751950  17.6058620  86.6981400  59.7437820  16.6116410  87.4805430
  66.9604600  27.2005540  79.0025400  66.3421870  27.6654990  78.4388120
  67.4727850  27.8933020  79.4194910  61.8236360  26.7281410  85.6809000
  61.4905740  27.3550330  86.3230070  62.0003040  27.2543290  84.9010670
  70.3370270  20.5426490  83.1485340  69.6325840  20.8311380  83.7288450
  70.6982430  21.3526600  82.7884900  60.2548840  18.7996190  85.5105950
  60.5965650  19.6438240  85.2159820  59.3164650  18.9479930  85.6271290
  61.0355460  28.6962210  87.4958180  61.6529460  29.3713290  87.2142630
  60.1748580  29.1050190  87.4045680  56.3287800  27.8862070  76.3765030
  55.9515780  28.3749170  75.6449930  56.5860870  28.5587350  77.0071560
  71.9533050  30.1601620  85.4112820  71.2696570  30.8300730  85.4029490
  72.4927340  30.3582270  84.6457680  73.4057190  19.9881280  83.5394550
  72.4582100  20.0220260  83.6709980  73.7307180  20.8020230  83.9243910
  63.9376730  16.2878460  81.8350540  64.2451710  15.7325350  81.1186040
  63.0077430  16.4222920  81.6523530  69.4891790  32.0045750  84.1258000
  69.5018950  31.6008040  83.2580260  68.9367010  32.7793040  84.0219430
  70.7837210  28.7261970  79.2148170  70.6733540  27.7836300  79.3397590
  70.7805460  29.0877610  80.1010930  68.8877230  26.9075590  85.4540610
  69.3046020  26.6935700  84.6194070  69.6117050  27.1648380  86.0249230
  66.3257490  24.3527290  78.5710660  65.3986770  24.2864670  78.7999130
  66.4782310  25.2907420  78.4565900  66.3126570  20.6244290  75.5677820
  65.3730240  20.7858250  75.6530280  66.6309830  21.3429970  75.0213810
  72.8339330  25.3062810  85.5456850  72.0057960  25.3755900  85.0706980
  73.4289810  25.8917120  85.0772680  70.3554780  25.9147590  79.0745910
  69.7367200  25.5767140  78.4272210  70.3379230  25.2707350  79.7825100
  69.7981340  22.0932130  86.4911720  69.3852520  22.9185840  86.7451710
  69.0657290  21.5077170  86.2988080  61.9314130  24.8792030  81.3530390
  61.5271130  24.1669280  80.8576290  62.0177250  24.5345270  82.2418430
  62.3995830  28.5659590  83.5169600  62.1024120  27.9605060  82.8377380
  63.3495650  28.6036900  83.4058960  60.6442750  21.6535240  85.1329430
  61.1957340  21.7630580  84.3582680  61.1586260  22.0272840  85.8484660
  70.4881440  32.1391460  87.1792700  70.0112000  32.9463650  86.9865310
  69.8043230  31.4869790  87.3318910  68.5319480  25.1534400  76.0818660
  68.9712760  24.3156830  75.9356480  69.2447900  25.7863800  76.1682800
  60.3185480  25.1754600  88.7434770  60.1793250  26.0477400  89.1122170
  59.4366840  24.8327410  88.5982710  66.6414860  30.0930470  80.0499900
  67.0810770  30.8354800  79.6355290  66.5801750  30.3357040  80.9738860
  72.1136620  16.4077210  74.3959700  71.8009280  16.5004040  75.2958770
  72.8749090  16.9858240  74.3457130  58.6318760  23.7737010  78.8537040
  58.5116360  24.4999100  78.2418310  58.3219650  23.0039920  78.3764950
  56.2704130  26.9452150  84.6605680  56.3484550  27.0800920  83.7161400
  56.8845810  26.2368040  84.8533800  57.5151760  28.6452340  81.0711860
  57.1079840  28.7866930  80.2165460  58.4064770  28.3612500  80.8683070
  67.3330640  32.7944250  87.9778910  67.8475310  32.7052260  88.7801340
  66.4899720  33.1403950  88.2706820  69.3085040  33.0799590  77.4062910
  69.1486180  32.7902530  78.3044740  69.1431750  32.3039720  76.8708140
  61.7873420  32.8598120  79.1834530  61.6115900  31.9433660  78.9702330
  60.9329160  33.2185410  79.4232330  69.0111170  30.5887150  75.9660910
  68.3176330  30.5864440  75.3063190  69.7534030  30.1646470  75.5355080
  68.5761100  32.2149860  80.0409400  69.0318050  31.4339240  80.3548020
  68.9153620  32.9256680  80.5850580  56.3263650  27.9866320  87.2000140
  56.4894690  27.5171680  86.3819510  56.7916100  27.4789880  87.8648980
  61.0982420  17.1172080  82.2360710  60.6550570  17.8981620  81.9045230
  61.6567410  17.4401970  82.9431650  65.3852230  19.9840600  87.8396030
  64.9231600  20.1923620  88.6515970  64.9830340  19.1699950  87.5366700
  64.2141240  16.7382780  77.1166540  63.5895420  16.7342650  77.8419850
  64.1271360  15.8713740  76.7202510  63.1358320  17.6619410  84.0950310
  63.4330650  18.5682240  84.0142330  63.6843880  17.1738190  83.4809880
  60.8896640  22.2405650  79.9641960  60.6637560  22.0242820  80.8688580
  60.1089170  22.6734110  79.6187930  68.1194400  22.2469020  78.5632610
  67.5203290  22.9704820  78.3796230  68.6674010  22.1845800  77.7809060
  66.7259270  20.8832560  80.5935890  67.1188840  21.2004760  79.7804580
  67.0876120  20.0044440  80.7080410  58.4606390  19.5504900  88.7836010
  58.0669780  20.3980110  88.9908790  57.7724790  18.9131270  88.9744650
  55.7623440  17.4733360  82.8166090  55.4736490  18.0436220  83.5291070
  56.5069200  16.9937810  83.1797320  55.9493670  21.4153480  74.0268810
  55.8668340  22.3584240  74.1683800  55.5976730  21.2728390  73.1481160
  67.3114410  23.4738310  84.6886670  66.5795530  23.9825120  85.0376770
  66.9138750  22.6568290  84.3875450  63.7491800  20.1492510  83.0939160
  63.7527860  19.7082460  82.2443700  64.6442920  20.4709840  83.2010980
  59.5994180  20.0319000  82.0533370  59.2594230  20.5094230  82.8100420
  58.8371500  19.5784120  81.6934470  63.8111950  21.1504590  76.0845920
  63.9324770  21.1091070  77.0331740  63.4260460  22.0128740  75.9292650
  67.7740320  18.9271990  84.1009610  67.7913060  19.3780640  84.9451460
  67.5255900  18.0277630  84.3143050  62.8233450  23.4605730  75.4829220
  62.2550350  23.0123980  74.8565130  63.5322450  23.8198510  74.9494370
  64.0499770  24.2094290  84.8404570  64.4169900  23.7352860  85.5865910
  63.8604830  25.0835860  85.1812910  56.9140260  18.9537980  80.9698040
  56.6287180  18.5893650  81.8076660  56.8519120  18.2218440  80.3561180
  61.8399140  23.2502930  87.1588780  61.5356210  24.1294910  87.3839140
  62.7945600  23.3102720  87.1946220  60.3680930  27.4563920  77.7555630
  59.5943190  26.9161540  77.5954350  61.0975560  26.9370530  77.4173390
  71.1268910  26.4529280  83.5482020  71.8468030  26.9484570  83.1578130
  70.9250730  25.7747170  82.9035890  66.5878850  17.8467240  77.6911410
  65.7743460  17.3480410  77.6156720  66.3940800  18.6865490  77.2747760
  69.3027240  22.2186890  75.9873570  70.1906860  22.5304120  75.8124910
  69.2732330  21.3459140  75.5954150  60.4118330  27.1244300  81.3934440
  60.9297000  26.3212560  81.3391330  59.9602350  27.0623440  82.2351270
  65.2987830  28.3910580  76.6661740  65.6403530  29.1352810  76.1705060
  64.4700540  28.7041700  77.0286570  57.8962870  24.0905670  88.3060140
  57.5377810  24.7559520  88.8933480  57.6017430  23.2589220  88.6772760
  71.5741510  23.5298730  75.4553430  71.4905230  23.9612950  74.6049870
  72.2935700  23.9897080  75.8880250  72.6515650  25.9866250  88.5323400
  71.9263840  26.5795030  88.3352790  73.1791110  25.9789790  87.7336770
  72.6028760  30.3840990  78.1835560  71.9604920  29.7296610  78.4579280
  72.2159420  30.7896080  77.4076230  68.1815240  27.7126420  82.0307250
  68.5339060  27.1154550  81.3708620  67.2977570  27.3870650  82.2015500
  64.2678520  28.4724110  79.4377660  64.9549650  29.0193320  79.8185250
  63.4810940  29.0164840  79.4727270  56.4070920  24.0896930  74.9294740
  57.2765770  24.3721730  75.2130660  55.9161240  24.9032800  74.8143550
  63.5705730  25.4770140  79.0503020  64.0268510  26.2875390  79.2763210
  63.2193940  25.1593280  79.8821510  65.8738340  30.9876480  86.2795320
  66.5180560  31.1935860  86.9568740  66.2367780  30.2264880  85.8266170
  59.4717510  15.8207790  79.5225540  59.3432140  15.8125690  80.4710460
  58.6479530  16.1590880  79.1716550  67.1470420  28.9908830  84.9972770
  67.7892650  28.2901990  85.1104940  67.6719770  29.7707270  84.8169660
  70.9926140  29.2757450  74.7211910  70.7663720  28.5587890  75.3136550
  70.6022340  29.0269890  73.8833660  68.9208040  29.7903730  88.2008830
  69.2564280  30.3770420  88.8786750  68.0008380  29.6596440  88.4306620
  56.7742170  33.3024310  75.4956370  57.1339810  33.9013650  74.8413640
  56.6334510  33.8484200  76.2691400  70.5742390  27.1929390  76.3826070
  70.2864090  27.6542080  77.1703950  71.3694560  26.7327160  76.6510290
  62.7910790  30.6855510  76.3130040  62.7820890  31.4185200  75.6974550
  61.8709150  30.4387090  76.4057000  58.3917430  25.9070400  77.0576800
  57.7845380  26.6469300  77.0672100  58.8666780  25.9969760  76.2315000
  67.9650220  20.0721220  86.7333690  68.3331040  19.2516430  87.0613260
  67.1048420  20.1323110  87.1489340  71.3312250  19.0278160  77.5421250
  70.7025410  19.1323830  76.8279480  70.8364170  19.2474940  78.3315130
  65.7770390  30.7483750  74.9755230  65.8782370  30.5447740  74.0457210
  64.8772130  30.4942030  75.1803010  63.2996280  21.3064110  78.9579130
  62.5912430  21.7750450  79.3992740  63.5840760  20.6486120  79.5924320
  64.9252210  22.7260810  86.9571660  65.4237460  23.2006630  87.6223510
  65.0675160  21.8024330  87.1641690  67.3311710  18.0314770  80.3974920
  67.2079490  18.0500900  79.4484430  68.2796270  18.0793710  80.5173320
  64.4188500  33.2670070  79.6702900  64.6730000  33.2291460  78.7482270
  63.4700980  33.1403400  79.6631150  61.5031300  19.6149190  76.3329840
  62.3521830  20.0519340  76.2670030  61.1362570  19.9269450  77.1601900
  72.1319070  18.9428770  87.8000050  71.6292670  19.6834170  88.1393860
  72.9475730  19.3312770  87.4836840  70.4241080  24.1861950  81.2461410
  69.4831220  24.2012180  81.4209100  70.7385150  23.3997910  81.6921710
  60.4022720  25.8681550  74.8065370  61.1685990  25.7562910  75.3690800
  60.4797410  25.1719520  74.1542140  59.0969480  23.3006620  75.4898260
  59.1773070  22.3534130  75.6015660  59.9889230  23.6313500  75.5958920
  72.4266660  31.3570800  82.9215670  72.5514080  32.1801970  83.3939480
  73.2932220  31.1461530  82.5739820  59.8984190  33.4502010  82.5932800
  60.6346670  32.9017470  82.8641370  60.2825110  34.3158020  82.4538790
  56.7829670  29.5175580  78.4674310  55.8569450  29.7596720  78.4579720
  57.2486100  30.3449840  78.3459060  63.0086500  32.6232320  74.4158370
  63.8015110  32.9121150  73.9640160  62.4890850  32.1924490  73.7370850
  72.0616670  31.8502450  75.8395110  71.7758180  31.4367590  75.0249290
  71.8636220  32.7790160  75.7195630  63.5263900  27.8435730  74.2800720
  63.4214540  27.2288080  75.0062100  63.3588120  27.3201620  73.4963730
  66.7666630  26.9055760  74.8842710  66.2176730  27.3525060  75.5285450
  67.3885890  26.4005010  75.4080380  62.4341750  25.8646680  76.7808010
  62.8558170  25.6986550  77.6239400  62.5592590  25.0546910  76.2863150
  64.9469390  24.8884290  74.0285110  65.4675050  24.1733310  73.6626260
  65.5937790  25.5270160  74.3285620  63.8502910  17.3678840  86.7003670
  63.4020210  17.3903100  85.8549220  63.2168110  16.9697860  87.2973970
  64.2562460  26.2633170  87.3216110  64.6750570  27.1065900  87.1492350
  63.3371090  26.4005210  87.0922890  68.9314260  24.5486540  87.2816460
  68.4049480  25.0729160  86.6781600  69.2745600  25.1813930  87.9126190
  61.3300650  21.9379910  73.7266170  61.1289710  21.0747270  74.0879510
  61.1592700  21.8513270  72.7887770  62.1069880  32.5686180  88.4373840
  61.5690970  33.2932240  88.1182540  62.3603840  32.0916520  87.6471180
  68.8088960  16.7488140  76.2553050  69.0891250  15.9056040  76.6112470
  68.0354690  16.9811250  76.7691800  60.1283450  19.0380530  73.7144050
  60.4309350  19.0447960  72.8063200  60.8678040  18.6878390  74.2111710
  64.9632090  33.8037390  88.6960490  64.8890790  34.7072530  89.0032860
  64.0610930  33.4849290  88.6682560  63.3468380  17.9815150  74.7000250
  62.9990380  17.3039140  74.1202700  63.5481150  17.5204660  75.5143640
  65.5117420  32.9695900  76.3186850  66.4068210  33.3080870  76.3405610
  65.5435050  32.2475310  75.6911130  59.1513580  28.3422950  74.5473850
  59.5888450  28.8852620  75.2031430  59.6361310  27.5169900  74.5570190
  56.3659380  31.1311980  81.9994110  56.6962390  30.2633040  81.7672750
  56.7950380  31.3370500  82.8299070  60.9621300  29.4620990  79.6596080
  60.6616840  29.3385960  80.5599990  60.8558790  28.6029580  79.2511810
  56.8549590  31.9982570  84.7375740  56.4180580  32.1783370  85.5699890
  57.4227270  32.7557190  84.5957460  73.7313220  29.2417390  74.3622760
  72.9006180  29.3094040  74.8329990  73.9085050  30.1321510  74.0589620
  73.1869680  25.9864870  76.8656960  73.9488590  26.5561520  76.9716650
  73.2024050  25.4192070  77.6365270  56.6874020  24.5102800  81.0964620
  56.0322860  24.2414440  80.4524320  57.5251970  24.4007280  80.6466600
  74.1929650  26.8414970  81.7098890  74.5638480  26.0582290  81.3034860
  74.8331580  27.5304070  81.5316190  71.1763410  28.2251550  87.1229210
  70.3623250  28.6548710  87.3855000  71.5837610  28.8369960  86.5098260
  73.2388850  26.2799240  74.0229480  73.5137690  27.1878120  73.8948700
  73.0499590  26.2161770  74.9591470  69.6364460  19.3044090  75.3183110
  70.0549340  19.1175070  74.4779770  69.3300520  18.4523140  75.6286040
  73.1354190  24.2168230  79.0158910  72.7597790  23.4496160  78.5840200
  72.4057310  24.5990930  79.5033840  57.7249950  24.8955370  85.6367960
  58.0922990  24.8082770  86.5163980  57.1560770  24.1321920  85.5374820
  72.5253810  23.3639750  88.6498430  72.2939900  23.1352500  87.7496380
  72.7858360  24.2839300  88.6043320  55.9012100  21.7201730  77.0389950
  54.9976180  21.9831930  76.8641610  56.3852720  21.9912900  76.2589910
  72.4105150  22.4425720  82.3166150  72.9342630  21.9488370  81.6856320
  72.9964570  22.5776080  83.0613720  72.5894870  22.5265590  85.8385700
  71.6397580  22.4929130  85.9530690  72.7707880  23.4365700  85.6035470
  58.4439310  20.7767270  74.9484330  59.1531010  20.3550490  74.4631610
  57.7279250  20.8442500  74.3167680  58.0913470  16.8306600  73.9886980
  58.8141600  17.3715540  74.3068200  58.3637990  16.5570020  73.1128520
  71.9005120  21.6999070  78.2558560  72.3964240  21.4669940  79.0407440
  71.7021190  20.8610910  77.8396200  57.7805660  16.0812790  83.8909600
  58.4281850  15.5310170  83.4504760  58.2007500  16.3355940  84.7125410
  73.3292280  20.3360020  80.7896240  73.2191560  20.1816060  81.7278510
  74.0899870  19.8080960  80.5471650  71.6758000  16.2754150  87.2479240
  72.3130220  16.8888290  87.6138430  71.8232890  16.3114810  86.3028470
  74.2182550  18.1667940  74.0302380  75.1431860  18.0349120  73.8220670
  74.1958340  18.2460760  74.9838830  74.2921040  18.9378600  76.6559090
  73.4972540  18.8723720  77.1852000  74.4964320  19.8729240  76.6444440
  71.2339460  32.9770150  80.6497480  71.8298530  32.6554720  79.9731900
  71.4917610  32.5041970  81.4410750  57.5337660  16.2368460  86.6334920
  57.1852480  16.6932280  87.3993100  57.2025360  15.3425590  86.7157350
  62.8408060  30.9647650  86.3997830  62.5999420  31.2322210  85.5128350
  63.7810700  31.1353380  86.4548690  74.1012220  32.9842030  87.2008470
  73.6070500  33.3810900  86.4835600  73.4925510  32.3591240  87.5945750
  58.9790060  32.3550310  87.9185890  58.3850380  32.2235010  88.6575930
  58.9713900  31.5188450  87.4527990  68.4245080  15.6482540  86.1215920
  67.5504920  15.9817650  85.9188850  68.3155830  15.1755720  86.9467790
  69.3317060  17.8553410  87.5057640  69.0030420  17.0405170  87.1259370
  70.2799360  17.8123220  87.3823330  71.7851670  33.6265450  84.4795210
  71.3254640  34.3781260  84.1053230  71.1564130  32.9071920  84.4210010
  58.6102290  29.7208690  86.8693930  57.8836350  29.1013980  86.8019880
  58.6711440  30.1149300  85.9992010  62.2147390  31.9353690  83.6543340
  62.7312410  31.3241050  83.1291600  62.8644770  32.4382470  84.1454350
  64.9542890  32.8262180  84.4812320  65.2420700  32.5716480  83.6045330
  65.4666110  32.2739540  85.0717890  66.1719900  16.5652380  85.0608830
  65.3891690  17.0397880  85.3405590  65.8782830  15.6607210  84.9522010
  70.7240970  17.2675480  83.1057920  71.1649060  17.2120580  82.2579520
  70.4548560  18.1833490  83.1768100  72.5879540  16.8990720  81.1166740
  72.5267940  15.9551940  80.9697760  73.3671570  17.0070810  81.6620200
  56.8932290  33.0383080  80.0790690  56.7254330  32.4053760  80.7772580
  56.0266800  33.2442480  79.7284880  57.5160310  16.8699860  77.5822550
  58.2739670  16.9828740  77.0086580  57.0537480  17.7069060  77.5365980
  64.0574120  18.9839130  80.5724860  63.2448630  18.6096020  80.2320740
  64.5615760  18.2284210  80.8746050  68.5599100  15.6481580  81.8107930
  69.1628470  16.2201790  82.2856450  67.8192090  16.2121020  81.5881830
  71.7033700  16.0503140  77.0848210  71.8984330  16.9486590  77.3515640
  70.9163570  15.8190220  77.5781160  58.4994990  31.7316310  77.5240830
  57.9742610  32.1124340  76.8202790  58.4239570  32.3567080  78.2450540
  59.8885460  17.3963910  76.1224520  60.4178220  16.6093710  75.9932470
  60.5213780  18.0755100  76.3560050  62.0823300  17.1339050  79.1769910
  61.4526040  16.4326360  79.3440040  61.5428440  17.8943180  78.9603070
  73.2560310  33.2903850  78.8454770  73.4312500  32.6041590  78.2015690
  72.5581880  33.8150900  78.4531440  61.0987960  33.6798690  76.3990080
  61.8306780  33.3957970  75.8513970  61.3581630  33.4411970  77.2889460
  60.2602750  29.7963420  76.4036410  59.6311630  30.2648520  76.9522240
  60.3750580  28.9512640  76.8382600  59.8636340  25.9367910  65.3122640
  59.0321220  25.6816620  65.7119150  60.4717320  26.0078680  66.0480560
  69.8677940  30.0308290  63.2146010  69.4059470  29.2595530  63.5433180
  70.6803490  30.0574360  63.7198460  59.8437600  29.9708000  65.5080660
  60.1465640  29.0805740  65.3290880  60.5881190  30.5278220  65.2802910
  58.2728290  20.8969800  59.0965030  57.3844990  21.2385770  58.9944910
  58.5569480  20.6970120  58.2045860  56.2361300  23.4975450  64.9804730
  56.8077410  22.7297650  64.9808370  56.2362840  23.7964210  64.0711340
  65.2879500  28.3005290  64.4417040  65.2187780  27.3595230  64.2806170
  66.0499360  28.3906700  65.0139610  57.4786170  18.9059810  66.7673660
  57.2989010  18.0085560  67.0476420  57.0766250  19.4531680  67.4420610
  66.3184670  21.1075670  64.6685970  66.6949490  20.2347550  64.5559640
  66.2204180  21.4434370  63.7776410  60.4489680  19.4801300  60.1303410
  60.5556430  20.3805030  60.4372170  59.5382040  19.4319270  59.8398060
  70.1008790  18.6026110  61.6014310  70.9218410  18.1122680  61.6439790
  70.1342870  19.1923770  62.3546150  58.0972840  21.4020310  65.3756000
  58.7782950  21.6658680  65.9943400  57.7820890  20.5621180  65.7094010
  62.2897410  22.4487670  64.4628590  62.7975630  22.9468640  65.1033610
  62.8210650  21.6722870  64.2867950  74.3908340  20.6192860  68.1657940
  73.6860510  21.0074570  67.6473050  74.6566260  21.3143150  68.7678870
  60.5733510  17.0886230  68.7292010  60.5751950  17.6058620  67.9237910
  59.7437820  16.6116410  68.7061940  61.8236360  26.7281410  66.9065510
  61.4905740  27.3550330  67.5486580  62.0003040  27.2543290  66.1267180
  70.3370270  20.5426490  64.3741850  69.6325840  20.8311380  64.9544960
  70.6982430  21.3526600  64.0141410  60.2548840  18.7996190  66.7362460
  60.5965650  19.6438240  66.4416330  59.3164650  18.9479930  66.8527800
  61.0355460  28.6962210  68.7214690  61.6529460  29.3713290  68.4399140
  60.1748580  29.1050190  68.6302190  71.9533050  30.1601620  66.6369330
  71.2696570  30.8300730  66.6286000  72.4927340  30.3582270  65.8714190
  73.4057190  19.9881280  64.7651060  72.4582100  20.0220260  64.8966490
  73.7307180  20.8020230  65.1500420  63.9376730  16.2878460  63.0607050
  64.2451710  15.7325350  62.3442550  63.0077430  16.4222920  62.8780040
  69.4891790  32.0045750  65.3514510  69.5018950  31.6008040  64.4836770
  68.9367010  32.7793040  65.2475940  70.7837210  28.7261970  60.4404680
  70.6733540  27.7836300  60.5654100  70.7805460  29.0877610  61.3267440
  68.8877230  26.9075590  66.6797120  69.3046020  26.6935700  65.8450580
  69.6117050  27.1648380  67.2505740  72.8339330  25.3062810  66.7713360
  72.0057960  25.3755900  66.2963490  73.4289810  25.8917120  66.3029190
  70.3554780  25.9147590  60.3002420  69.7367200  25.5767140  59.6528720
  70.3379230  25.2707350  61.0081610  69.7981340  22.0932130  67.7168230
  69.3852520  22.9185840  67.9708220  69.0657290  21.5077170  67.5244590
  62.3995830  28.5659590  64.7426110  62.1024120  27.9605060  64.0633890
  63.3495650  28.6036900  64.6315470  60.6442750  21.6535240  66.3585940
  61.1957340  21.7630580  65.5839190  61.1586260  22.0272840  67.0741170
  70.4881440  32.1391460  68.4049210  70.0112000  32.9463650  68.2121820
  69.8043230  31.4869790  68.5575420  61.4914260  28.3041280  71.3933910
  60.5942790  28.5281250  71.6407310  61.5167130  28.4276220  70.4445310
  60.3185480  25.1754600  69.9691280  60.1793250  26.0477400  70.3378680
  59.4366840  24.8327410  69.8239220  62.1165830  31.1176300  72.1776430
  62.0881260  31.5219250  71.3104860  61.9530800  30.1886660  72.0148030
  72.1136620  16.4077210  55.6216210  71.8009280  16.5004040  56.5215280
  72.8749090  16.9858240  55.5713640  58.6318760  23.7737010  60.0793550
  58.5116360  24.4999100  59.4674820  58.3219650  23.0039920  59.6021460
  74.0680650  31.9003400  73.4740600  74.5440370  32.3786290  74.1529680
  74.6887810  31.8320890  72.7486100  56.2704130  26.9452150  65.8862190
  56.3484550  27.0800920  64.9417910  56.8845810  26.2368040  66.0790310
  57.5151760  28.6452340  62.2968370  57.1079840  28.7866930  61.4421970
  58.4064770  28.3612500  62.0939580  73.4713900  29.0916250  70.6340610
  73.5976960  28.8528130  69.7157790  73.5135280  28.2600790  71.1062690
  67.3330640  32.7944250  69.2035420  67.8475310  32.7052260  70.0057850
  66.4899720  33.1403950  69.4963330  68.5761100  32.2149860  61.2665910
  69.0318050  31.4339240  61.5804530  68.9153620  32.9256680  61.8107090
  73.3237910  21.1448710  71.5990350  72.7082180  21.6528380  71.0705810
  73.0034330  20.2447040  71.5416290  56.3263650  27.9866320  68.4256650
  56.4894690  27.5171680  67.6076020  56.7916100  27.4789880  69.0905490
  61.0982420  17.1172080  63.4617220  60.6550570  17.8981620  63.1301740
  61.6567410  17.4401970  64.1688160  65.3852230  19.9840600  69.0652540
  64.9231600  20.1923620  69.8772480  64.9830340  19.1699950  68.7623210
  70.3856740  21.2049550  70.1949200  69.5350330  20.9055300  70.5158270
  70.2258530  21.4491560  69.2833020  67.4806450  22.7051300  72.2947990
  67.8059860  21.8715050  71.9550220  68.2686780  23.2279820  72.4426320
  64.2141240  16.7382780  58.3423050  63.5895420  16.7342650  59.0676360
  64.1271360  15.8713740  57.9459020  63.1358320  17.6619410  65.3206820
  63.4330650  18.5682240  65.2398840  63.6843880  17.1738190  64.7066390
  60.8896640  22.2405650  61.1898470  60.6637560  22.0242820  62.0945090
  60.1089170  22.6734110  60.8444440  68.1194400  22.2469020  59.7889120
  67.5203290  22.9704820  59.6052740  68.6674010  22.1845800  59.0065570
  63.3295850  23.1391230  71.8558740  63.2339450  22.1985960  71.7059140
  64.1727830  23.3606300  71.4606810  66.7259270  20.8832560  61.8192400
  67.1188840  21.2004760  61.0061090  67.0876120  20.0044440  61.9336920
  58.4606390  19.5504900  70.0092520  58.0669780  20.3980110  70.2165300
  57.7724790  18.9131270  70.2001160  65.0351440  19.6339870  73.0789260
  64.3449760  19.4412070  73.7135350  65.7783740  19.9174510  73.6113560
  55.7623440  17.4733360  64.0422600  55.4736490  18.0436220  64.7547580
  56.5069200  16.9937810  64.4053830  55.9493670  21.4153480  55.2525320
  55.8668340  22.3584240  55.3940310  55.5976730  21.2728390  54.3737670
  67.3114410  23.4738310  65.9143180  66.5795530  23.9825120  66.2633280
  66.9138750  22.6568290  65.6131960  63.7491800  20.1492510  64.3195670
  63.7527860  19.7082460  63.4700210  64.6442920  20.4709840  64.4267490
  59.5994180  20.0319000  63.2789880  59.2594230  20.5094230  64.0356930
  58.8371500  19.5784120  62.9190980  67.7740320  18.9271990  65.3266120
  67.7913060  19.3780640  66.1707970  67.5255900  18.0277630  65.5399560
  71.2011070  16.3404170  71.1652500  71.5256840  15.6093830  71.6910480
  71.2367580  16.0217810  70.2633490  57.9002630  27.3617750  70.5852460
  57.5157420  26.7211420  71.1835420  58.2114820  28.0653870  71.1547190
  64.0499770  24.2094290  66.0661080  64.4169900  23.7352860  66.8122420
  63.8604830  25.0835860  66.4069420  56.9140260  18.9537980  62.1954550
  56.6287180  18.5893650  63.0333170  56.8519120  18.2218440  61.5817690
  61.8399140  23.2502930  68.3845290  61.5356210  24.1294910  68.6095650
  62.7945600  23.3102720  68.4202730  71.1268910  26.4529280  64.7738530
  71.8468030  26.9484570  64.3834640  70.9250730  25.7747170  64.1292400
  66.5878850  17.8467240  58.9167920  65.7743460  17.3480410  58.8413230
  66.3940800  18.6865490  58.5004270  66.5087710  26.5238340  70.6607530
  66.4425020  25.6034010  70.4065120  65.8792850  26.6213780  71.3752170
  69.3027240  22.2186890  57.2130080  70.1906860  22.5304120  57.0381420
  69.2732330  21.3459140  56.8210660  60.4118330  27.1244300  62.6190950
  60.9297000  26.3212560  62.5647840  59.9602350  27.0623440  63.4607780
  57.8962870  24.0905670  69.5316650  57.5377810  24.7559520  70.1189990
  57.6017430  23.2589220  69.9029270  61.0975990  24.5489910  72.4156200
  60.7976130  24.6947090  71.5184020  61.8687230  23.9895200  72.3229590
  66.4404440  29.3458910  70.4111330  66.4548980  28.4139870  70.1930240
  65.7329540  29.4318670  71.0501100  71.5741510  23.5298730  56.6809940
  71.4905230  23.9612950  55.8306380  72.2935700  23.9897080  57.1136760
  72.6515650  25.9866250  69.7579910  71.9263840  26.5795030  69.5609300
  73.1791110  25.9789790  68.9593280  72.6028760  30.3840990  59.4092070
  71.9604920  29.7296610  59.6835790  72.2159420  30.7896080  58.6332740
  68.1815240  27.7126420  63.2563760  68.5339060  27.1154550  62.5965130
  67.2977570  27.3870650  63.4272010  65.8738340  30.9876480  67.5051830
  66.5180560  31.1935860  68.1825250  66.2367780  30.2264880  67.0522680
  59.4717510  15.8207790  60.7482050  59.3432140  15.8125690  61.6966970
  58.6479530  16.1590880  60.3973060  67.1470420  28.9908830  66.2229280
  67.7892650  28.2901990  66.3361450  67.6719770  29.7707270  66.0426170
  68.9208040  29.7903730  69.4265340  69.2564280  30.3770420  70.1043260
  68.0008380  29.6596440  69.6563130  56.4711440  17.5798910  70.2088750
  55.7569960  17.7795830  70.8141360  56.8906480  16.8038480  70.5803550
  56.7584030  31.5679170  71.1955280  56.8675150  30.6273910  71.0550670
  56.1064590  31.8333920  70.5469010  64.7496620  29.8395060  72.5953400
  64.4293490  29.1204300  73.1399090  64.0754980  30.5150130  72.6689460
  67.9650220  20.0721220  67.9590200  68.3331040  19.2516430  68.2869770
  67.1048420  20.1323110  68.3745850  71.3312250  19.0278160  58.7677760
  70.7025410  19.1323830  58.0535990  70.8364170  19.2474940  59.5571640
  64.9252210  22.7260810  68.1828170  65.4237460  23.2006630  68.8480020
  65.0675160  21.8024330  68.3898200  67.3311710  18.0314770  61.6231430
  67.2079490  18.0500900  60.6740940  68.2796270  18.0793710  61.7429830
  61.5031300  19.6149190  57.5586350  62.3521830  20.0519340  57.4926540
  61.1362570  19.9269450  58.3858410  72.1319070  18.9428770  69.0256560
  71.6292670  19.6834170  69.3650370  72.9475730  19.3312770  68.7093350
  70.4241080  24.1861950  62.4717920  69.4831220  24.2012180  62.6465610
  70.7385150  23.3997910  62.9178220  72.4266660  31.3570800  64.1472180
  72.5514080  32.1801970  64.6195990  73.2932220  31.1461530  63.7996330
  59.8984190  33.4502010  63.8189310  60.6346670  32.9017470  64.0897880
  60.2825110  34.3158020  63.6795300  56.7829670  29.5175580  59.6930820
  55.8569450  29.7596720  59.6836230  57.2486100  30.3449840  59.5715570
  58.9042470  32.6348080  73.0074890  59.7055200  32.9560130  73.4210290
  58.3894290  32.2743660  73.7294800  67.7407100  28.7427950  72.9550300
  67.1345260  28.7659550  72.2146050  67.4361210  28.0110990  73.4917550
  69.1707470  32.4708240  71.5659710  70.1229220  32.3866260  71.5159950
  69.0235690  33.1349950  72.2393500  56.6240280  25.1221540  71.9510940
  57.1279300  24.5428820  72.5227170  55.8847700  25.4061770  72.4887310
  63.6778220  26.5292530  71.4846460  62.9123890  27.0977530  71.4001130
  63.8594180  26.2368740  70.5914690  70.8201570  28.2597860  72.0421480
  71.5611040  28.5973620  71.5388940  70.0574250  28.4289920  71.4891250
  58.6563360  23.2651130  72.8461010  58.6968700  22.9665000  73.7546240
  59.5108860  23.6658740  72.6868530  60.5969170  21.8443230  70.8135500
  60.0665630  21.3534180  70.1858840  61.2657240  22.2727430  70.2793430
  69.4947230  26.3112690  70.5776690  69.9088250  26.4657770  71.4267110
  68.5598230  26.4367910  70.7402470  69.9669400  23.6508850  72.5815840
  70.5490170  22.8961170  72.4936320  70.1431170  24.1816290  71.8047320
  61.0841470  18.8105600  70.8932790  60.9898340  18.1926350  70.1683660
  60.5038860  19.5371890  70.6662700  63.8502910  17.3678840  67.9260180
  63.4020210  17.3903100  67.0805730  63.2168110  16.9697860  68.5230480
  64.2562460  26.2633170  68.5472620  64.6750570  27.1065900  68.3748860
  63.3371090  26.4005210  68.3179400  66.5926360  23.9949350  69.9310460
  66.7122570  23.3990490  70.6705300  67.4520360  24.0319040  69.5111760
  68.9314260  24.5486540  68.5072970  68.4049480  25.0729160  67.9038110
  69.2745600  25.1813930  69.1382700  62.1069880  32.5686180  69.6630350
  61.5690970  33.2932240  69.3439050  62.3603840  32.0916520  68.8727690
  63.3595130  20.5370700  71.1886280  63.9494820  20.2286550  71.8764100
  62.5415370  20.0650450  71.3446180  68.1788560  20.1536510  71.4219300
  67.4904080  19.4918050  71.3569290  68.8994580  19.7074780  71.8667760
  68.8088960  16.7488140  57.4809560  69.0891250  15.9056040  57.8368980
  68.0354690  16.9811250  57.9948310  60.1283450  19.0380530  54.9400560
  60.4309350  19.0447960  54.0319710  60.8678040  18.6878390  55.4368220
  64.9632090  33.8037390  69.9217000  64.8890790  34.7072530  70.2289370
  64.0610930  33.4849290  69.8939070  63.3468380  17.9815150  55.9256760
  62.9990380  17.3039140  55.3459210  63.5481150  17.5204660  56.7400150
  56.3659380  31.1311980  63.2250620  56.6962390  30.2633040  62.9929260
  56.7950380  31.3370500  64.0555580  56.8549590  31.9982570  65.9632250
  56.4180580  32.1783370  66.7956400  57.4227270  32.7557190  65.8213970
  72.4911770  31.4999570  70.2509560  71.8913760  31.5592130  69.5073480
  72.6205670  30.5604550  70.3806410  73.1869680  25.9864870  58.0913470
  73.9488590  26.5561520  58.1973160  73.2024050  25.4192070  58.8621780
  56.6874020  24.5102800  62.3221130  56.0322860  24.2414440  61.6780830
  57.5251970  24.4007280  61.8723110  74.1929650  26.8414970  62.9355400
  74.5638480  26.0582290  62.5291370  74.8331580  27.5304070  62.7572700
  71.1763410  28.2251550  68.3485720  70.3623250  28.6548710  68.6111510
  71.5837610  28.8369960  67.7354770  73.2388850  26.2799240  55.2485990
  73.5137690  27.1878120  55.1205210  73.0499590  26.2161770  56.1847980
  69.6364460  19.3044090  56.5439620  70.0549340  19.1175070  55.7036280
  69.3300520  18.4523140  56.8542550  73.1354190  24.2168230  60.2415420
  72.7597790  23.4496160  59.8096710  72.4057310  24.5990930  60.7290350
  57.7249950  24.8955370  66.8624470  58.0922990  24.8082770  67.7420490
  57.1560770  24.1321920  66.7631330  72.5253810  23.3639750  69.8754940
  72.2939900  23.1352500  68.9752890  72.7858360  24.2839300  69.8299830
  57.2765950  21.8064460  70.7682890  56.3822000  21.7731220  71.1076600
  57.8163500  22.0051250  71.5334140  70.9641880  18.5896180  72.6534640
  71.8412060  18.5979580  73.0368640  70.9762720  17.8527020  72.0426990
  55.9012100  21.7201730  58.2646460  54.9976180  21.9831930  58.0898120
  56.3852720  21.9912900  57.4846420  72.4105150  22.4425720  63.5422660
  72.9342630  21.9488370  62.9112830  72.9964570  22.5776080  64.2870230
  72.5894870  22.5265590  67.0642210  71.6397580  22.4929130  67.1787200
  72.7707880  23.4365700  66.8291980  58.4439310  20.7767270  56.1740840
  59.1531010  20.3550490  55.6888120  57.7279250  20.8442500  55.5424190
  58.0913470  16.8306600  55.2143490  58.8141600  17.3715540  55.5324710
  58.3637990  16.5570020  54.3385030  71.9005120  21.6999070  59.4815070
  72.3964240  21.4669940  60.2663950  71.7021190  20.8610910  59.0652710
  57.7805660  16.0812790  65.1166110  58.4281850  15.5310170  64.6761270
  58.2007500  16.3355940  65.9381920  73.3292280  20.3360020  62.0152750
  73.2191560  20.1816060  62.9535020  74.0899870  19.8080960  61.7728160
  71.6758000  16.2754150  68.4735750  72.3130220  16.8888290  68.8394940
  71.8232890  16.3114810  67.5284980  74.2182550  18.1667940  55.2558890
  75.1431860  18.0349120  55.0477180  74.1958340  18.2460760  56.2095340
  74.2921040  18.9378600  57.8815600  73.4972540  18.8723720  58.4108510
  74.4964320  19.8729240  57.8700950  71.2339460  32.9770150  61.8753990
  71.8298530  32.6554720  61.1988410  71.4917610  32.5041970  62.6667260
  57.5337660  16.2368460  67.8591430  57.1852480  16.6932280  68.6249610
  57.2025360  15.3425590  67.9413860  59.1402030  29.4088060  72.0244620
  59.0971660  29.0380970  72.9059080  59.2713040  30.3465630  72.1646440
  62.8408060  30.9647650  67.6254340  62.5999420  31.2322210  66.7384860
  63.7810700  31.1353380  67.6805200  65.0462480  17.4280340  71.3810850
  64.9851370  18.0202170  72.1306260  65.9862860  17.3206300  71.2361110
  67.6837040  17.0850400  71.0203140  68.2977450  17.4029690  70.3584220
  68.2286600  16.5998990  71.6399000  74.1012220  32.9842030  68.4264980
  73.6070500  33.3810900  67.7092110  73.4925510  32.3591240  68.8202260
  58.2058300  15.7644660  71.1342200  58.7541290  15.5832710  70.3708310
  58.2713610  14.9738770  71.6698510  58.9790060  32.3550310  69.1442400
  58.3850380  32.2235010  69.8832440  58.9713900  31.5188450  68.6784500
  68.4245080  15.6482540  67.3472430  67.5504920  15.9817650  67.1445360
  68.3155830  15.1755720  68.1724300  69.3317060  17.8553410  68.7314150
  69.0030420  17.0405170  68.3515880  70.2799360  17.8123220  68.6079840
  71.7851670  33.6265450  65.7051720  71.3254640  34.3781260  65.3309740
  71.1564130  32.9071920  65.6466520  58.6102290  29.7208690  68.0950440
  57.8836350  29.1013980  68.0276390  58.6711440  30.1149300  67.2248520
  62.2147390  31.9353690  64.8799850  62.7312410  31.3241050  64.3548110
  62.8644770  32.4382470  65.3710860  64.9542890  32.8262180  65.7068830
  65.2420700  32.5716480  64.8301840  65.4666110  32.2739540  66.2974400
  66.1719900  16.5652380  66.2865340  65.3891690  17.0397880  66.5662100
  65.8782830  15.6607210  66.1778520  70.7240970  17.2675480  64.3314430
  71.1649060  17.2120580  63.4836030  70.4548560  18.1833490  64.4024610
  72.5879540  16.8990720  62.3423250  72.5267940  15.9551940  62.1954270
  73.3671570  17.0070810  62.8876710  56.8932290  33.0383080  61.3047200
  56.7254330  32.4053760  62.0029090  56.0266800  33.2442480  60.9541390
  57.5160310  16.8699860  58.8079060  58.2739670  16.9828740  58.2343090
  57.0537480  17.7069060  58.7622490  64.0574120  18.9839130  61.7981370
  63.2448630  18.6096020  61.4577250  64.5615760  18.2284210  62.1002560
  68.5599100  15.6481580  63.0364440  69.1628470  16.2201790  63.5112960
  67.8192090  16.2121020  62.8138340  71.7033700  16.0503140  58.3104720
  71.8984330  16.9486590  58.5772150  70.9163570  15.8190220  58.8037670
  59.8885460  17.3963910  57.3481030  60.4178220  16.6093710  57.2188980
  60.5213780  18.0755100  57.5816560  62.0823300  17.1339050  60.4026420
  61.4526040  16.4326360  60.5696550  61.5428440  17.8943180  60.1859580
  65.0215250  33.7478280  73.0737030  65.9482560  33.5122550  73.1172990
  65.0065680  34.5750280  72.5923060  73.2560310  33.2903850  60.0711280
  73.4312500  32.6041590  59.4272200  72.5581880  33.8150900  59.6787950
  62.2078860  16.4123030  72.8378910  61.9263130  16.9156630  72.0739730
  62.5898560  15.6144780  72.4721040  68.8094320  15.8276610  73.4159380
  68.6959770  16.1471220  74.3110900  69.6264060  16.2289120  73.1196660
  71.5892810  32.9748140  72.8978070  72.3818130  32.4797370  72.6904030
  71.8825960  33.6538280  73.5053680  69.8677940  30.0308290  44.4402520
  69.4059470  29.2595530  44.7689690  70.6803490  30.0574360  44.9454970
  58.2728290  20.8969800  40.3221540  57.3844990  21.2385770  40.2201420
  58.5569480  20.6970120  39.4302370  57.4786170  18.9059810  47.9930170
  57.2989010  18.0085560  48.2732930  57.0766250  19.4531680  48.6677120
  60.4489680  19.4801300  41.3559920  60.5556430  20.3805030  41.6628680
  59.5382040  19.4319270  41.0654570  70.1008790  18.6026110  42.8270820
  70.9218410  18.1122680  42.8696300  70.1342870  19.1923770  43.5802660
  74.3908340  20.6192860  49.3914450  73.6860510  21.0074570  48.8729560
  74.6566260  21.3143150  49.9935380  60.5733510  17.0886230  49.9548520
  60.5751950  17.6058620  49.1494420  59.7437820  16.6116410  49.9318450
  66.9604600  27.2005540  41.4538420  66.3421870  27.6654990  40.8901140
  67.4727850  27.8933020  41.8707930  70.3370270  20.5426490  45.5998360
  69.6325840  20.8311380  46.1801470  70.6982430  21.3526600  45.2397920
  56.3287800  27.8862070  38.8278050  55.9515780  28.3749170  38.0962950
  56.5860870  28.5587350  39.4584580  73.4057190  19.9881280  45.9907570
  72.4582100  20.0220260  46.1223000  73.7307180  20.8020230  46.3756930
  63.9376730  16.2878460  44.2863560  64.2451710  15.7325350  43.5699060
  63.0077430  16.4222920  44.1036550  70.7837210  28.7261970  41.6661190
  70.6733540  27.7836300  41.7910610  70.7805460  29.0877610  42.5523950
  66.3126570  20.6244290  38.0190840  65.3730240  20.7858250  38.1043300
  66.6309830  21.3429970  37.4726830  70.3554780  25.9147590  41.5258930
  69.7367200  25.5767140  40.8785230  70.3379230  25.2707350  42.2338120
  68.5319480  25.1534400  38.5331680  68.9712760  24.3156830  38.3869500
  69.2447900  25.7863800  38.6195820  72.1136620  16.4077210  36.8472720
  71.8009280  16.5004040  37.7471790  72.8749090  16.9858240  36.7970150
  73.4713900  29.0916250  51.8597120  73.5976960  28.8528130  50.9414300
  73.5135280  28.2600790  52.3319200  69.3085040  33.0799590  39.8575930
  69.1486180  32.7902530  40.7557760  69.1431750  32.3039720  39.3221160
  69.0111170  30.5887150  38.4173930  68.3176330  30.5864440  37.7576210
  69.7534030  30.1646470  37.9868100  73.3237910  21.1448710  52.8246860
  72.7082180  21.6528380  52.2962320  73.0034330  20.2447040  52.7672800
  61.0982420  17.1172080  44.6873730  60.6550570  17.8981620  44.3558250
  61.6567410  17.4401970  45.3944670  65.3852230  19.9840600  50.2909050
  64.9231600  20.1923620  51.1028990  64.9830340  19.1699950  49.9879720
  64.2141240  16.7382780  39.5679560  63.5895420  16.7342650  40.2932870
  64.1271360  15.8713740  39.1715530  68.1194400  22.2469020  41.0145630
  67.5203290  22.9704820  40.8309250  68.6674010  22.1845800  40.2322080
  66.7259270  20.8832560  43.0448910  67.1188840  21.2004760  42.2317600
  67.0876120  20.0044440  43.1593430  58.4606390  19.5504900  51.2349030
  58.0669780  20.3980110  51.4421810  57.7724790  18.9131270  51.4257670
  55.7623440  17.4733360  45.2679110  55.4736490  18.0436220  45.9804090
  56.5069200  16.9937810  45.6310340  55.9493670  21.4153480  36.4781830
  55.8668340  22.3584240  36.6196820  55.5976730  21.2728390  35.5994180
  63.8111950  21.1504590  38.5358940  63.9324770  21.1091070  39.4844760
  63.4260460  22.0128740  38.3805670  67.7740320  18.9271990  46.5522630
  67.7913060  19.3780640  47.3964480  67.5255900  18.0277630  46.7656070
  62.8233450  23.4605730  37.9342240  62.2550350  23.0123980  37.3078150
  63.5322450  23.8198510  37.4007390  71.2011070  16.3404170  52.3909010
  71.5256840  15.6093830  52.9166990  71.2367580  16.0217810  51.4890000
  56.9140260  18.9537980  43.4211060  56.6287180  18.5893650  44.2589680
  56.8519120  18.2218440  42.8074200  60.3680930  27.4563920  40.2068650
  59.5943190  26.9161540  40.0467370  61.0975560  26.9370530  39.8686410
  71.1268910  26.4529280  45.9995040  71.8468030  26.9484570  45.6091150
  70.9250730  25.7747170  45.3548910  66.5878850  17.8467240  40.1424430
  65.7743460  17.3480410  40.0669740  66.3940800  18.6865490  39.7260780
  69.3027240  22.2186890  38.4386590  70.1906860  22.5304120  38.2637930
  69.2732330  21.3459140  38.0467170  65.2987830  28.3910580  39.1174760
  65.6403530  29.1352810  38.6218080  64.4700540  28.7041700  39.4799590
  57.8962870  24.0905670  50.7573160  57.5377810  24.7559520  51.3446500
  57.6017430  23.2589220  51.1285780  71.5741510  23.5298730  37.9066450
  71.4905230  23.9612950  37.0562890  72.2935700  23.9897080  38.3393270
  72.6028760  30.3840990  40.6348580  71.9604920  29.7296610  40.9092300
  72.2159420  30.7896080  39.8589250  56.4070920  24.0896930  37.3807760
  57.2765770  24.3721730  37.6643680  55.9161240  24.9032800  37.2656570
  59.4717510  15.8207790  41.9738560  59.3432140  15.8125690  42.9223480
  58.6479530  16.1590880  41.6229570  70.9926140  29.2757450  37.1724930
  70.7663720  28.5587890  37.7649570  70.6022340  29.0269890  36.3346680
  56.4711440  17.5798910  51.4345260  55.7569960  17.7795830  52.0397870
  56.8906480  16.8038480  51.8060060  70.5742390  27.1929390  38.8339090
  70.2864090  27.6542080  39.6216970  71.3694560  26.7327160  39.1023310
  62.7910790  30.6855510  38.7643060  62.7820890  31.4185200  38.1487570
  61.8709150  30.4387090  38.8570020  58.3917430  25.9070400  39.5089820
  57.7845380  26.6469300  39.5185120  58.8666780  25.9969760  38.6828020
  67.9650220  20.0721220  49.1846710  68.3331040  19.2516430  49.5126280
  67.1048420  20.1323110  49.6002360  71.3312250  19.0278160  39.9934270
  70.7025410  19.1323830  39.2792500  70.8364170  19.2474940  40.7828150
  65.7770390  30.7483750  37.4268250  65.8782370  30.5447740  36.4970230
  64.8772130  30.4942030  37.6316030  63.2996280  21.3064110  41.4092150
  62.5912430  21.7750450  41.8505760  63.5840760  20.6486120  42.0437340
  67.3311710  18.0314770  42.8487940  67.2079490  18.0500900  41.8997450
  68.2796270  18.0793710  42.9686340  61.5031300  19.6149190  38.7842860
  62.3521830  20.0519340  38.7183050  61.1362570  19.9269450  39.6114920
  72.1319070  18.9428770  50.2513070  71.6292670  19.6834170  50.5906880
  72.9475730  19.3312770  49.9349860  70.4241080  24.1861950  43.6974430
  69.4831220  24.2012180  43.8722120  70.7385150  23.3997910  44.1434730
  60.4022720  25.8681550  37.2578390  61.1685990  25.7562910  37.8203820
  60.4797410  25.1719520  36.6055160  59.0969480  23.3006620  37.9411280
  59.1773070  22.3534130  38.0528680  59.9889230  23.6313500  38.0471940
  63.0086500  32.6232320  36.8671390  63.8015110  32.9121150  36.4153180
  62.4890850  32.1924490  36.1883870  72.0616670  31.8502450  38.2908130
  71.7758180  31.4367590  37.4762310  71.8636220  32.7790160  38.1708650
  63.5263900  27.8435730  36.7313740  63.4214540  27.2288080  37.4575120
  63.3588120  27.3201620  35.9476750  66.7666630  26.9055760  37.3355730
  66.2176730  27.3525060  37.9798470  67.3885890  26.4005010  37.8593400
  62.4341750  25.8646680  39.2321030  62.8558170  25.6986550  40.0752420
  62.5592590  25.0546910  38.7376170  64.9469390  24.8884290  36.4798130
  65.4675050  24.1733310  36.1139280  65.5937790  25.5270160  36.7798640
  61.0841470  18.8105600  52.1189300  60.9898340  18.1926350  51.3940170
  60.5038860  19.5371890  51.8919210  63.8502910  17.3678840  49.1516690
  63.4020210  17.3903100  48.3062240  63.2168110  16.9697860  49.7486990
  61.3300650  21.9379910  36.1779190  61.1289710  21.0747270  36.5392530
  61.1592700  21.8513270  35.2400790  68.1788560  20.1536510  52.6475810
  67.4904080  19.4918050  52.5825800  68.8994580  19.7074780  53.0924270
  68.8088960  16.7488140  38.7066070  69.0891250  15.9056040  39.0625490
  68.0354690  16.9811250  39.2204820  60.1283450  19.0380530  36.1657070
  60.4309350  19.0447960  35.2576220  60.8678040  18.6878390  36.6624730
  63.3468380  17.9815150  37.1513270  62.9990380  17.3039140  36.5715720
  63.5481150  17.5204660  37.9656660  65.5117420  32.9695900  38.7699870
  66.4068210  33.3080870  38.7918630  65.5435050  32.2475310  38.1424150
  59.1513580  28.3422950  36.9986870  59.5888450  28.8852620  37.6544450
  59.6361310  27.5169900  37.0083210  73.7313220  29.2417390  36.8135780
  72.9006180  29.3094040  37.2843010  73.9085050  30.1321510  36.5102640
  73.1869680  25.9864870  39.3169980  73.9488590  26.5561520  39.4229670
  73.2024050  25.4192070  40.0878290  74.1929650  26.8414970  44.1611910
  74.5638480  26.0582290  43.7547880  74.8331580  27.5304070  43.9829210
  73.2388850  26.2799240  36.4742500  73.5137690  27.1878120  36.3461720
  73.0499590  26.2161770  37.4104490  69.6364460  19.3044090  37.7696130
  70.0549340  19.1175070  36.9292790  69.3300520  18.4523140  38.0799060
  73.1354190  24.2168230  41.4671930  72.7597790  23.4496160  41.0353220
  72.4057310  24.5990930  41.9546860  57.2765950  21.8064460  51.9939400
  56.3822000  21.7731220  52.3333110  57.8163500  22.0051250  52.7590650
  70.9641880  18.5896180  53.8791150  71.8412060  18.5979580  54.2625150
  70.9762720  17.8527020  53.2683500  55.9012100  21.7201730  39.4902970
  54.9976180  21.9831930  39.3154630  56.3852720  21.9912900  38.7102930
  72.4105150  22.4425720  44.7679170  72.9342630  21.9488370  44.1369340
  72.9964570  22.5776080  45.5126740  72.5894870  22.5265590  48.2898720
  71.6397580  22.4929130  48.4043710  72.7707880  23.4365700  48.0548490
  58.4439310  20.7767270  37.3997350  59.1531010  20.3550490  36.9144630
  57.7279250  20.8442500  36.7680700  58.0913470  16.8306600  36.4400000
  58.8141600  17.3715540  36.7581220  58.3637990  16.5570020  35.5641540
  71.9005120  21.6999070  40.7071580  72.3964240  21.4669940  41.4920460
  71.7021190  20.8610910  40.2909220  57.7805660  16.0812790  46.3422620
  58.4281850  15.5310170  45.9017780  58.2007500  16.3355940  47.1638430
  73.3292280  20.3360020  43.2409260  73.2191560  20.1816060  44.1791530
  74.0899870  19.8080960  42.9984670  71.6758000  16.2754150  49.6992260
  72.3130220  16.8888290  50.0651450  71.8232890  16.3114810  48.7541490
  74.2182550  18.1667940  36.4815400  75.1431860  18.0349120  36.2733690
  74.1958340  18.2460760  37.4351850  74.2921040  18.9378600  39.1072110
  73.4972540  18.8723720  39.6365020  74.4964320  19.8729240  39.0957460
  71.2339460  32.9770150  43.1010500  71.8298530  32.6554720  42.4244920
  71.4917610  32.5041970  43.8923770  57.5337660  16.2368460  49.0847940
  57.1852480  16.6932280  49.8506120  57.2025360  15.3425590  49.1670370
  65.0462480  17.4280340  52.6067360  64.9851370  18.0202170  53.3562770
  65.9862860  17.3206300  52.4617620  67.6837040  17.0850400  52.2459650
  68.2977450  17.4029690  51.5840730  68.2286600  16.5998990  52.8655510
  58.2058300  15.7644660  52.3598710  58.7541290  15.5832710  51.5964820
  58.2713610  14.9738770  52.8955020  68.4245080  15.6482540  48.5728940
  67.5504920  15.9817650  48.3701870  68.3155830  15.1755720  49.3980810
  69.3317060  17.8553410  49.9570660  69.0030420  17.0405170  49.5772390
  70.2799360  17.8123220  49.8336350  66.1719900  16.5652380  47.5121850
  65.3891690  17.0397880  47.7918610  65.8782830  15.6607210  47.4035030
  70.7240970  17.2675480  45.5570940  71.1649060  17.2120580  44.7092540
  70.4548560  18.1833490  45.6281120  72.5879540  16.8990720  43.5679760
  72.5267940  15.9551940  43.4210780  73.3671570  17.0070810  44.1133220
  57.5160310  16.8699860  40.0335570  58.2739670  16.9828740  39.4599600
  57.0537480  17.7069060  39.9879000  64.0574120  18.9839130  43.0237880
  63.2448630  18.6096020  42.6833760  64.5615760  18.2284210  43.3259070
  68.5599100  15.6481580  44.2620950  69.1628470  16.2201790  44.7369470
  67.8192090  16.2121020  44.0394850  71.7033700  16.0503140  39.5361230
  71.8984330  16.9486590  39.8028660  70.9163570  15.8190220  40.0294180
  59.8885460  17.3963910  38.5737540  60.4178220  16.6093710  38.4445490
  60.5213780  18.0755100  38.8073070  62.0823300  17.1339050  41.6282930
  61.4526040  16.4326360  41.7953060  61.5428440  17.8943180  41.4116090
  73.2560310  33.2903850  41.2967790  73.4312500  32.6041590  40.6528710
  72.5581880  33.8150900  40.9044460  62.2078860  16.4123030  54.0635420
  61.9263130  16.9156630  53.2996240  62.5898560  15.6144780  53.6977550
  60.2602750  29.7963420  38.8549430  59.6311630  30.2648520  39.4035260
  60.3750580  28.9512640  39.2895620  68.8094320  15.8276610  54.6415890
  68.6959770  16.1471220  55.5367410  69.6264060  16.2289120  54.3453170
  67.7152470  23.8469080  25.0050630  67.6346520  22.9323690  24.7342340
  67.3016890  24.3436150  24.2990340  65.8470510  25.6248100  26.8859900
  65.0712610  25.1448540  27.1758470  66.4983440  24.9453750  26.7116060
  59.8636340  25.9367910  27.7635660  59.0321220  25.6816620  28.1632170
  60.4717320  26.0078680  28.4993580  69.8677940  30.0308290  25.6659030
  69.4059470  29.2595530  25.9946200  70.6803490  30.0574360  26.1711480
  59.8437600  29.9708000  27.9593680  60.1465640  29.0805740  27.7803900
  60.5881190  30.5278220  27.7315930  58.2728290  20.8969800  21.5478050
  57.3844990  21.2385770  21.4457930  58.5569480  20.6970120  20.6558880
  56.2361300  23.4975450  27.4317750  56.8077410  22.7297650  27.4321390
  56.2362840  23.7964210  26.5224360  66.0941250  32.3166300  25.2863020
  65.4752690  32.7723800  24.7157460  66.9493030  32.4717760  24.8852720
  65.2879500  28.3005290  26.8930060  65.2187780  27.3595230  26.7319190
  66.0499360  28.3906700  27.4652630  57.4786170  18.9059810  29.2186680
  57.2989010  18.0085560  29.4989440  57.0766250  19.4531680  29.8933630
  66.3184670  21.1075670  27.1198990  66.6949490  20.2347550  27.0072660
  66.2204180  21.4434370  26.2289430  60.4489680  19.4801300  22.5816430
  60.5556430  20.3805030  22.8885190  59.5382040  19.4319270  22.2911080
  70.1008790  18.6026110  24.0527330  70.9218410  18.1122680  24.0952810
  70.1342870  19.1923770  24.8059170  58.0972840  21.4020310  27.8269020
  58.7782950  21.6658680  28.4456420  57.7820890  20.5621180  28.1607030
  62.2897410  22.4487670  26.9141610  62.7975630  22.9468640  27.5546630
  62.8210650  21.6722870  26.7380970  74.3908340  20.6192860  30.6170960
  73.6860510  21.0074570  30.0986070  74.6566260  21.3143150  31.2191890
  60.5733510  17.0886230  31.1805030  60.5751950  17.6058620  30.3750930
  59.7437820  16.6116410  31.1574960  66.9604600  27.2005540  22.6794930
  66.3421870  27.6654990  22.1157650  67.4727850  27.8933020  23.0964440
  61.8236360  26.7281410  29.3578530  61.4905740  27.3550330  29.9999600
  62.0003040  27.2543290  28.5780200  70.3370270  20.5426490  26.8254870
  69.6325840  20.8311380  27.4057980  70.6982430  21.3526600  26.4654430
  60.2548840  18.7996190  29.1875480  60.5965650  19.6438240  28.8929350
  59.3164650  18.9479930  29.3040820  61.0355460  28.6962210  31.1727710
  61.6529460  29.3713290  30.8912160  60.1748580  29.1050190  31.0815210
  56.3287800  27.8862070  20.0534560  55.9515780  28.3749170  19.3219460
  56.5860870  28.5587350  20.6841090  71.9533050  30.1601620  29.0882350
  71.2696570  30.8300730  29.0799020  72.4927340  30.3582270  28.3227210
  73.4057190  19.9881280  27.2164080  72.4582100  20.0220260  27.3479510
  73.7307180  20.8020230  27.6013440  63.9376730  16.2878460  25.5120070
  64.2451710  15.7325350  24.7955570  63.0077430  16.4222920  25.3293060
  69.4891790  32.0045750  27.8027530  69.5018950  31.6008040  26.9349790
  68.9367010  32.7793040  27.6988960  70.7837210  28.7261970  22.8917700
  70.6733540  27.7836300  23.0167120  70.7805460  29.0877610  23.7780460
  68.8877230  26.9075590  29.1310140  69.3046020  26.6935700  28.2963600
  69.6117050  27.1648380  29.7018760  66.3257490  24.3527290  22.2480190
  65.3986770  24.2864670  22.4768660  66.4782310  25.2907420  22.1335430
  66.3126570  20.6244290  19.2447350  65.3730240  20.7858250  19.3299810
  66.6309830  21.3429970  18.6983340  72.8339330  25.3062810  29.2226380
  72.0057960  25.3755900  28.7476510  73.4289810  25.8917120  28.7542210
  70.3554780  25.9147590  22.7515440  69.7367200  25.5767140  22.1041740
  70.3379230  25.2707350  23.4594630  69.7981340  22.0932130  30.1681250
  69.3852520  22.9185840  30.4221240  69.0657290  21.5077170  29.9757610
  61.9314130  24.8792030  25.0299920  61.5271130  24.1669280  24.5345820
  62.0177250  24.5345270  25.9187960  62.3995830  28.5659590  27.1939130
  62.1024120  27.9605060  26.5146910  63.3495650  28.6036900  27.0828490
  60.6442750  21.6535240  28.8098960  61.1957340  21.7630580  28.0352210
  61.1586260  22.0272840  29.5254190  70.4881440  32.1391460  30.8562230
  70.0112000  32.9463650  30.6634840  69.8043230  31.4869790  31.0088440
  61.4914260  28.3041280  33.8446930  60.5942790  28.5281250  34.0920330
  61.5167130  28.4276220  32.8958330  68.5319480  25.1534400  19.7588190
  68.9712760  24.3156830  19.6126010  69.2447900  25.7863800  19.8452330
  60.3185480  25.1754600  32.4204300  60.1793250  26.0477400  32.7891700
  59.4366840  24.8327410  32.2752240  66.6414860  30.0930470  23.7269430
  67.0810770  30.8354800  23.3124820  66.5801750  30.3357040  24.6508390
  62.1165830  31.1176300  34.6289450  62.0881260  31.5219250  33.7617880
  61.9530800  30.1886660  34.4661050  72.1136620  16.4077210  18.0729230
  71.8009280  16.5004040  18.9728300  72.8749090  16.9858240  18.0226660
  58.6318760  23.7737010  22.5306570  58.5116360  24.4999100  21.9187840
  58.3219650  23.0039920  22.0534480  74.0680650  31.9003400  35.9253620
  74.5440370  32.3786290  36.6042700  74.6887810  31.8320890  35.1999120
  56.2704130  26.9452150  28.3375210  56.3484550  27.0800920  27.3930930
  56.8845810  26.2368040  28.5303330  57.5151760  28.6452340  24.7481390
  57.1079840  28.7866930  23.8934990  58.4064770  28.3612500  24.5452600
  73.4713900  29.0916250  33.0853630  73.5976960  28.8528130  32.1670810
  73.5135280  28.2600790  33.5575710  67.3330640  32.7944250  31.6548440
  67.8475310  32.7052260  32.4570870  66.4899720  33.1403950  31.9476350
  69.3085040  33.0799590  21.0832440  69.1486180  32.7902530  21.9814270
  69.1431750  32.3039720  20.5477670  69.0111170  30.5887150  19.6430440
  68.3176330  30.5864440  18.9832720  69.7534030  30.1646470  19.2124610
  68.5761100  32.2149860  23.7178930  69.0318050  31.4339240  24.0317550
  68.9153620  32.9256680  24.2620110  73.3237910  21.1448710  34.0503370
  72.7082180  21.6528380  33.5218830  73.0034330  20.2447040  33.9929310
  56.3263650  27.9866320  30.8769670  56.4894690  27.5171680  30.0589040
  56.7916100  27.4789880  31.5418510  61.0982420  17.1172080  25.9130240
  60.6550570  17.8981620  25.5814760  61.6567410  17.4401970  26.6201180
  65.3852230  19.9840600  31.5165560  64.9231600  20.1923620  32.3285500
  64.9830340  19.1699950  31.2136230  70.3856740  21.2049550  32.6462220
  69.5350330  20.9055300  32.9671290  70.2258530  21.4491560  31.7346040
  67.4806450  22.7051300  34.7461010  67.8059860  21.8715050  34.4063240
  68.2686780  23.2279820  34.8939340  64.2141240  16.7382780  20.7936070
  63.5895420  16.7342650  21.5189380  64.1271360  15.8713740  20.3972040
  63.1358320  17.6619410  27.7719840  63.4330650  18.5682240  27.6911860
  63.6843880  17.1738190  27.1579410  60.8896640  22.2405650  23.6411490
  60.6637560  22.0242820  24.5458110  60.1089170  22.6734110  23.2957460
  68.1194400  22.2469020  22.2402140  67.5203290  22.9704820  22.0565760
  68.6674010  22.1845800  21.4578590  63.3295850  23.1391230  34.3071760
  63.2339450  22.1985960  34.1572160  64.1727830  23.3606300  33.9119830
  66.7259270  20.8832560  24.2705420  67.1188840  21.2004760  23.4574110
  67.0876120  20.0044440  24.3849940  58.4606390  19.5504900  32.4605540
  58.0669780  20.3980110  32.6678320  57.7724790  18.9131270  32.6514180
  65.0351440  19.6339870  35.5302280  64.3449760  19.4412070  36.1648370
  65.7783740  19.9174510  36.0626580  55.7623440  17.4733360  26.4935620
  55.4736490  18.0436220  27.2060600  56.5069200  16.9937810  26.8566850
  55.9493670  21.4153480  17.7038340  55.8668340  22.3584240  17.8453330
  55.5976730  21.2728390  16.8250690  67.3114410  23.4738310  28.3656200
  66.5795530  23.9825120  28.7146300  66.9138750  22.6568290  28.0644980
  63.7491800  20.1492510  26.7708690  63.7527860  19.7082460  25.9213230
  64.6442920  20.4709840  26.8780510  59.5994180  20.0319000  25.7302900
  59.2594230  20.5094230  26.4869950  58.8371500  19.5784120  25.3704000
  63.8111950  21.1504590  19.7615450  63.9324770  21.1091070  20.7101270
  63.4260460  22.0128740  19.6062180  67.7740320  18.9271990  27.7779140
  67.7913060  19.3780640  28.6220990  67.5255900  18.0277630  27.9912580
  62.8233450  23.4605730  19.1598750  62.2550350  23.0123980  18.5334660
  63.5322450  23.8198510  18.6263900  71.2011070  16.3404170  33.6165520
  71.5256840  15.6093830  34.1423500  71.2367580  16.0217810  32.7146510
  57.9002630  27.3617750  33.0365480  57.5157420  26.7211420  33.6348440
  58.2114820  28.0653870  33.6060210  64.0499770  24.2094290  28.5174100
  64.4169900  23.7352860  29.2635440  63.8604830  25.0835860  28.8582440
  56.9140260  18.9537980  24.6467570  56.6287180  18.5893650  25.4846190
  56.8519120  18.2218440  24.0330710  61.8399140  23.2502930  30.8358310
  61.5356210  24.1294910  31.0608670  62.7945600  23.3102720  30.8715750
  60.3680930  27.4563920  21.4325160  59.5943190  26.9161540  21.2723880
  61.0975560  26.9370530  21.0942920  71.1268910  26.4529280  27.2251550
  71.8468030  26.9484570  26.8347660  70.9250730  25.7747170  26.5805420
  66.5878850  17.8467240  21.3680940  65.7743460  17.3480410  21.2926250
  66.3940800  18.6865490  20.9517290  66.5087710  26.5238340  33.1120550
  66.4425020  25.6034010  32.8578140  65.8792850  26.6213780  33.8265190
  69.3027240  22.2186890  19.6643100  70.1906860  22.5304120  19.4894440
  69.2732330  21.3459140  19.2723680  60.4118330  27.1244300  25.0703970
  60.9297000  26.3212560  25.0160860  59.9602350  27.0623440  25.9120800
  65.2987830  28.3910580  20.3431270  65.6403530  29.1352810  19.8474590
  64.4700540  28.7041700  20.7056100  57.8962870  24.0905670  31.9829670
  57.5377810  24.7559520  32.5703010  57.6017430  23.2589220  32.3542290
  61.0975990  24.5489910  34.8669220  60.7976130  24.6947090  33.9697040
  61.8687230  23.9895200  34.7742610  66.4404440  29.3458910  32.8624350
  66.4548980  28.4139870  32.6443260  65.7329540  29.4318670  33.5014120
  71.5741510  23.5298730  19.1322960  71.4905230  23.9612950  18.2819400
  72.2935700  23.9897080  19.5649780  72.6515650  25.9866250  32.2092930
  71.9263840  26.5795030  32.0122320  73.1791110  25.9789790  31.4106300
  72.6028760  30.3840990  21.8605090  71.9604920  29.7296610  22.1348810
  72.2159420  30.7896080  21.0845760  68.1815240  27.7126420  25.7076780
  68.5339060  27.1154550  25.0478150  67.2977570  27.3870650  25.8785030
  64.2678520  28.4724110  23.1147190  64.9549650  29.0193320  23.4954780
  63.4810940  29.0164840  23.1496800  56.4070920  24.0896930  18.6064270
  57.2765770  24.3721730  18.8900190  55.9161240  24.9032800  18.4913080
  63.5705730  25.4770140  22.7272550  64.0268510  26.2875390  22.9532740
  63.2193940  25.1593280  23.5591040  65.8738340  30.9876480  29.9564850
  66.5180560  31.1935860  30.6338270  66.2367780  30.2264880  29.5035700
  59.4717510  15.8207790  23.1995070  59.3432140  15.8125690  24.1479990
  58.6479530  16.1590880  22.8486080  67.1470420  28.9908830  28.6742300
  67.7892650  28.2901990  28.7874470  67.6719770  29.7707270  28.4939190
  70.9926140  29.2757450  18.3981440  70.7663720  28.5587890  18.9906080
  70.6022340  29.0269890  17.5603190  68.9208040  29.7903730  31.8778360
  69.2564280  30.3770420  32.5556280  68.0008380  29.6596440  32.1076150
  56.7742170  33.3024310  19.1725900  57.1339810  33.9013650  18.5183170
  56.6334510  33.8484200  19.9460930  56.4711440  17.5798910  32.6601770
  55.7569960  17.7795830  33.2654380  56.8906480  16.8038480  33.0316570
  70.5742390  27.1929390  20.0595600  70.2864090  27.6542080  20.8473480
  71.3694560  26.7327160  20.3279820  64.7496620  29.8395060  35.0466420
  64.4293490  29.1204300  35.5912110  64.0754980  30.5150130  35.1202480
  62.7910790  30.6855510  19.9899570  62.7820890  31.4185200  19.3744080
  61.8709150  30.4387090  20.0826530  58.3917430  25.9070400  20.7346330
  57.7845380  26.6469300  20.7441630  58.8666780  25.9969760  19.9084530
  67.9650220  20.0721220  30.4103220  68.3331040  19.2516430  30.7382790
  67.1048420  20.1323110  30.8258870  71.3312250  19.0278160  21.2190780
  70.7025410  19.1323830  20.5049010  70.8364170  19.2474940  22.0084660
  65.7770390  30.7483750  18.6524760  65.8782370  30.5447740  17.7226740
  64.8772130  30.4942030  18.8572540  63.2996280  21.3064110  22.6348660
  62.5912430  21.7750450  23.0762270  63.5840760  20.6486120  23.2693850
  64.9252210  22.7260810  30.6341190  65.4237460  23.2006630  31.2993040
  65.0675160  21.8024330  30.8411220  67.3311710  18.0314770  24.0744450
  67.2079490  18.0500900  23.1253960  68.2796270  18.0793710  24.1942850
  64.4188500  33.2670070  23.3472430  64.6730000  33.2291460  22.4251800
  63.4700980  33.1403400  23.3400680  61.5031300  19.6149190  20.0099370
  62.3521830  20.0519340  19.9439560  61.1362570  19.9269450  20.8371430
  72.1319070  18.9428770  31.4769580  71.6292670  19.6834170  31.8163390
  72.9475730  19.3312770  31.1606370  70.4241080  24.1861950  24.9230940
  69.4831220  24.2012180  25.0978630  70.7385150  23.3997910  25.3691240
  60.4022720  25.8681550  18.4834900  61.1685990  25.7562910  19.0460330
  60.4797410  25.1719520  17.8311670  59.0969480  23.3006620  19.1667790
  59.1773070  22.3534130  19.2785190  59.9889230  23.6313500  19.2728450
  72.4266660  31.3570800  26.5985200  72.5514080  32.1801970  27.0709010
  73.2932220  31.1461530  26.2509350  56.7829670  29.5175580  22.1443840
  55.8569450  29.7596720  22.1349250  57.2486100  30.3449840  22.0228590
  63.0086500  32.6232320  18.0927900  63.8015110  32.9121150  17.6409690
  62.4890850  32.1924490  17.4140380  67.7407100  28.7427950  35.4063320
  67.1345260  28.7659550  34.6659070  67.4361210  28.0110990  35.9430570
  69.1707470  32.4708240  34.0172730  70.1229220  32.3866260  33.9672970
  69.0235690  33.1349950  34.6906520  72.0616670  31.8502450  19.5164640
  71.7758180  31.4367590  18.7018820  71.8636220  32.7790160  19.3965160
  56.6240280  25.1221540  34.4023960  57.1279300  24.5428820  34.9740190
  55.8847700  25.4061770  34.9400330  63.5263900  27.8435730  17.9570250
  63.4214540  27.2288080  18.6831630  63.3588120  27.3201620  17.1733260
  63.6778220  26.5292530  33.9359480  62.9123890  27.0977530  33.8514150
  63.8594180  26.2368740  33.0427710  66.7666630  26.9055760  18.5612240
  66.2176730  27.3525060  19.2054980  67.3885890  26.4005010  19.0849910
  70.8201570  28.2597860  34.4934500  71.5611040  28.5973620  33.9901960
  70.0574250  28.4289920  33.9404270  58.6563360  23.2651130  35.2974030
  58.6968700  22.9665000  36.2059260  59.5108860  23.6658740  35.1381550
  62.4341750  25.8646680  20.4577540  62.8558170  25.6986550  21.3008930
  62.5592590  25.0546910  19.9632680  60.5969170  21.8443230  33.2648520
  60.0665630  21.3534180  32.6371860  61.2657240  22.2727430  32.7306450
  64.9469390  24.8884290  17.7054640  65.4675050  24.1733310  17.3395790
  65.5937790  25.5270160  18.0055150  69.4947230  26.3112690  33.0289710
  69.9088250  26.4657770  33.8780130  68.5598230  26.4367910  33.1915490
  69.9669400  23.6508850  35.0328860  70.5490170  22.8961170  34.9449340
  70.1431170  24.1816290  34.2560340  61.0841470  18.8105600  33.3445810
  60.9898340  18.1926350  32.6196680  60.5038860  19.5371890  33.1175720
  63.8502910  17.3678840  30.3773200  63.4020210  17.3903100  29.5318750
  63.2168110  16.9697860  30.9743500  64.2562460  26.2633170  30.9985640
  64.6750570  27.1065900  30.8261880  63.3371090  26.4005210  30.7692420
  66.5926360  23.9949350  32.3823480  66.7122570  23.3990490  33.1218320
  67.4520360  24.0319040  31.9624780  68.9314260  24.5486540  30.9585990
  68.4049480  25.0729160  30.3551130  69.2745600  25.1813930  31.5895720
  61.3300650  21.9379910  17.4035700  61.1289710  21.0747270  17.7649040
  61.1592700  21.8513270  16.4657300  62.1069880  32.5686180  32.1143370
  61.5690970  33.2932240  31.7952070  62.3603840  32.0916520  31.3240710
  63.3595130  20.5370700  33.6399300  63.9494820  20.2286550  34.3277120
  62.5415370  20.0650450  33.7959200  68.1788560  20.1536510  33.8732320
  67.4904080  19.4918050  33.8082310  68.8994580  19.7074780  34.3180780
  68.8088960  16.7488140  19.9322580  69.0891250  15.9056040  20.2882000
  68.0354690  16.9811250  20.4461330  60.1283450  19.0380530  17.3913580
  60.4309350  19.0447960  16.4832730  60.8678040  18.6878390  17.8881240
  64.9632090  33.8037390  32.3730020  64.8890790  34.7072530  32.6802390
  64.0610930  33.4849290  32.3452090  63.3468380  17.9815150  18.3769780
  62.9990380  17.3039140  17.7972230  63.5481150  17.5204660  19.1913170
  65.5117420  32.9695900  19.9956380  66.4068210  33.3080870  20.0175140
  65.5435050  32.2475310  19.3680660  59.1513580  28.3422950  18.2243380
  59.5888450  28.8852620  18.8800960  59.6361310  27.5169900  18.2339720
  56.3659380  31.1311980  25.6763640  56.6962390  30.2633040  25.4442280
  56.7950380  31.3370500  26.5068600  60.9621300  29.4620990  23.3365610
  60.6616840  29.3385960  24.2369520  60.8558790  28.6029580  22.9281340
  56.8549590  31.9982570  28.4145270  56.4180580  32.1783370  29.2469420
  57.4227270  32.7557190  28.2726990  72.4911770  31.4999570  32.7022580
  71.8913760  31.5592130  31.9586500  72.6205670  30.5604550  32.8319430
  73.7313220  29.2417390  18.0392290  72.9006180  29.3094040  18.5099520
  73.9085050  30.1321510  17.7359150  73.1869680  25.9864870  20.5426490
  73.9488590  26.5561520  20.6486180  73.2024050  25.4192070  21.3134800
  56.6874020  24.5102800  24.7734150  56.0322860  24.2414440  24.1293850
  57.5251970  24.4007280  24.3236130  74.1929650  26.8414970  25.3868420
  74.5638480  26.0582290  24.9804390  74.8331580  27.5304070  25.2085720
  71.1763410  28.2251550  30.7998740  70.3623250  28.6548710  31.0624530
  71.5837610  28.8369960  30.1867790  73.2388850  26.2799240  17.6999010
  73.5137690  27.1878120  17.5718230  73.0499590  26.2161770  18.6361000
  69.6364460  19.3044090  18.9952640  70.0549340  19.1175070  18.1549300
  69.3300520  18.4523140  19.3055570  73.1354190  24.2168230  22.6928440
  72.7597790  23.4496160  22.2609730  72.4057310  24.5990930  23.1803370
  57.7249950  24.8955370  29.3137490  58.0922990  24.8082770  30.1933510
  57.1560770  24.1321920  29.2144350  72.5253810  23.3639750  32.3267960
  72.2939900  23.1352500  31.4265910  72.7858360  24.2839300  32.2812850
  57.2765950  21.8064460  33.2195910  56.3822000  21.7731220  33.5589620
  57.8163500  22.0051250  33.9847160  70.9641880  18.5896180  35.1047660
  71.8412060  18.5979580  35.4881660  70.9762720  17.8527020  34.4940010
  55.9012100  21.7201730  20.7159480  54.9976180  21.9831930  20.5411140
  56.3852720  21.9912900  19.9359440  72.4105150  22.4425720  25.9935680
  72.9342630  21.9488370  25.3625850  72.9964570  22.5776080  26.7383250
  72.5894870  22.5265590  29.5155230  71.6397580  22.4929130  29.6300220
  72.7707880  23.4365700  29.2805000  58.4439310  20.7767270  18.6253860
  59.1531010  20.3550490  18.1401140  57.7279250  20.8442500  17.9937210
  58.0913470  16.8306600  17.6656510  58.8141600  17.3715540  17.9837730
  58.3637990  16.5570020  16.7898050  71.9005120  21.6999070  21.9328090
  72.3964240  21.4669940  22.7176970  71.7021190  20.8610910  21.5165730
  57.7805660  16.0812790  27.5679130  58.4281850  15.5310170  27.1274290
  58.2007500  16.3355940  28.3894940  73.3292280  20.3360020  24.4665770
  73.2191560  20.1816060  25.4048040  74.0899870  19.8080960  24.2241180
  71.6758000  16.2754150  30.9248770  72.3130220  16.8888290  31.2907960
  71.8232890  16.3114810  29.9798000  74.2182550  18.1667940  17.7071910
  75.1431860  18.0349120  17.4990200  74.1958340  18.2460760  18.6608360
  74.2921040  18.9378600  20.3328620  73.4972540  18.8723720  20.8621530
  74.4964320  19.8729240  20.3213970  71.2339460  32.9770150  24.3267010
  71.8298530  32.6554720  23.6501430  71.4917610  32.5041970  25.1180280
  57.5337660  16.2368460  30.3104450  57.1852480  16.6932280  31.0762630
  57.2025360  15.3425590  30.3926880  62.8408060  30.9647650  30.0767360
  62.5999420  31.2322210  29.1897880  63.7810700  31.1353380  30.1318220
  65.0462480  17.4280340  33.8323870  64.9851370  18.0202170  34.5819280
  65.9862860  17.3206300  33.6874130  67.6837040  17.0850400  33.4716160
  68.2977450  17.4029690  32.8097240  68.2286600  16.5998990  34.0912020
  74.1012220  32.9842030  30.8778000  73.6070500  33.3810900  30.1605130
  73.4925510  32.3591240  31.2715280  58.2058300  15.7644660  33.5855220
  58.7541290  15.5832710  32.8221330  58.2713610  14.9738770  34.1211530
  68.4245080  15.6482540  29.7985450  67.5504920  15.9817650  29.5958380
  68.3155830  15.1755720  30.6237320  69.3317060  17.8553410  31.1827170
  69.0030420  17.0405170  30.8028900  70.2799360  17.8123220  31.0592860
  71.7851670  33.6265450  28.1564740  71.3254640  34.3781260  27.7822760
  71.1564130  32.9071920  28.0979540  58.6102290  29.7208690  30.5463460
  57.8836350  29.1013980  30.4789410  58.6711440  30.1149300  29.6761540
  62.2147390  31.9353690  27.3312870  62.7312410  31.3241050  26.8061130
  62.8644770  32.4382470  27.8223880  64.9542890  32.8262180  28.1581850
  65.2420700  32.5716480  27.2814860  65.4666110  32.2739540  28.7487420
  66.1719900  16.5652380  28.7378360  65.3891690  17.0397880  29.0175120
  65.8782830  15.6607210  28.6291540  70.7240970  17.2675480  26.7827450
  71.1649060  17.2120580  25.9349050  70.4548560  18.1833490  26.8537630
  72.5879540  16.8990720  24.7936270  72.5267940  15.9551940  24.6467290
  73.3671570  17.0070810  25.3389730  57.5160310  16.8699860  21.2592080
  58.2739670  16.9828740  20.6856110  57.0537480  17.7069060  21.2135510
  64.0574120  18.9839130  24.2494390  63.2448630  18.6096020  23.9090270
  64.5615760  18.2284210  24.5515580  68.5599100  15.6481580  25.4877460
  69.1628470  16.2201790  25.9625980  67.8192090  16.2121020  25.2651360
  71.7033700  16.0503140  20.7617740  71.8984330  16.9486590  21.0285170
  70.9163570  15.8190220  21.2550690  58.4994990  31.7316310  21.2010360
  57.9742610  32.1124340  20.4972320  58.4239570  32.3567080  21.9220070
  59.8885460  17.3963910  19.7994050  60.4178220  16.6093710  19.6702000
  60.5213780  18.0755100  20.0329580  62.0823300  17.1339050  22.8539440
  61.4526040  16.4326360  23.0209570  61.5428440  17.8943180  22.6372600
  65.0215250  33.7478280  35.5250050  65.9482560  33.5122550  35.5686010
  65.0065680  34.5750280  35.0436080  73.2560310  33.2903850  22.5224300
  73.4312500  32.6041590  21.8785220  72.5581880  33.8150900  22.1300970
  62.2078860  16.4123030  35.2891930  61.9263130  16.9156630  34.5252750
  62.5898560  15.6144780  34.9234060  60.2602750  29.7963420  20.0805940
  59.6311630  30.2648520  20.6291770  60.3750580  28.9512640  20.5152130
  68.8094320  15.8276610  35.8672400  68.6959770  16.1471220  36.7623920
  69.6264060  16.2289120  35.5709680  71.5892810  32.9748140  35.3491090
  72.3818130  32.4797370  35.1417050  71.8825960  33.6538280  35.9566700
  67.7152470  23.8469080   6.2307140  67.6346520  22.9323690   5.9598850
  67.3016890  24.3436150   5.5246850  65.8470510  25.6248100   8.1116410
  65.0712610  25.1448540   8.4014980  66.4983440  24.9453750   7.9372570
  59.8636340  25.9367910   8.9892170  59.0321220  25.6816620   9.3888680
  60.4717320  26.0078680   9.7250090  69.8677940  30.0308290   6.8915540
  69.4059470  29.2595530   7.2202710  70.6803490  30.0574360   7.3967990
  59.8437600  29.9708000   9.1850190  60.1465640  29.0805740   9.0060410
  60.5881190  30.5278220   8.9572440  58.2728290  20.8969800   2.7734560
  57.3844990  21.2385770   2.6714440  58.5569480  20.6970120   1.8815390
  56.2361300  23.4975450   8.6574260  56.8077410  22.7297650   8.6577900
  56.2362840  23.7964210   7.7480870  66.0941250  32.3166300   6.5119530
  65.4752690  32.7723800   5.9413970  66.9493030  32.4717760   6.1109230
  65.2879500  28.3005290   8.1186570  65.2187780  27.3595230   7.9575700
  66.0499360  28.3906700   8.6909140  57.4786170  18.9059810  10.4443190
  57.2989010  18.0085560  10.7245950  57.0766250  19.4531680  11.1190140
  66.3184670  21.1075670   8.3455500  66.6949490  20.2347550   8.2329170
  66.2204180  21.4434370   7.4545940  60.4489680  19.4801300   3.8072940
  60.5556430  20.3805030   4.1141700  59.5382040  19.4319270   3.5167590
  70.1008790  18.6026110   5.2783840  70.9218410  18.1122680   5.3209320
  70.1342870  19.1923770   6.0315680  58.0972840  21.4020310   9.0525530
  58.7782950  21.6658680   9.6712930  57.7820890  20.5621180   9.3863540
  62.2897410  22.4487670   8.1398120  62.7975630  22.9468640   8.7803140
  62.8210650  21.6722870   7.9637480  74.3908340  20.6192860  11.8427470
  73.6860510  21.0074570  11.3242580  74.6566260  21.3143150  12.4448400
  60.5733510  17.0886230  12.4061540  60.5751950  17.6058620  11.6007440
  59.7437820  16.6116410  12.3831470  66.9604600  27.2005540   3.9051440
  66.3421870  27.6654990   3.3414160  67.4727850  27.8933020   4.3220950
  61.8236360  26.7281410  10.5835040  61.4905740  27.3550330  11.2256110
  62.0003040  27.2543290   9.8036710  70.3370270  20.5426490   8.0511380
  69.6325840  20.8311380   8.6314490  70.6982430  21.3526600   7.6910940
  60.2548840  18.7996190  10.4131990  60.5965650  19.6438240  10.1185860
  59.3164650  18.9479930  10.5297330  61.0355460  28.6962210  12.3984220
  61.6529460  29.3713290  12.1168670  60.1748580  29.1050190  12.3071720
  71.9533050  30.1601620  10.3138860  71.2696570  30.8300730  10.3055530
  72.4927340  30.3582270   9.5483720  73.4057190  19.9881280   8.4420590
  72.4582100  20.0220260   8.5736020  73.7307180  20.8020230   8.8269950
  63.9376730  16.2878460   6.7376580  64.2451710  15.7325350   6.0212080
  63.0077430  16.4222920   6.5549570  69.4891790  32.0045750   9.0284040
  69.5018950  31.6008040   8.1606300  68.9367010  32.7793040   8.9245470
  70.7837210  28.7261970   4.1174210  70.6733540  27.7836300   4.2423630
  70.7805460  29.0877610   5.0036970  68.8877230  26.9075590  10.3566650
  69.3046020  26.6935700   9.5220110  69.6117050  27.1648380  10.9275270
  66.3257490  24.3527290   3.4736700  65.3986770  24.2864670   3.7025170
  66.4782310  25.2907420   3.3591940  72.8339330  25.3062810  10.4482890
  72.0057960  25.3755900   9.9733020  73.4289810  25.8917120   9.9798720
  70.3554780  25.9147590   3.9771950  69.7367200  25.5767140   3.3298250
  70.3379230  25.2707350   4.6851140  69.7981340  22.0932130  11.3937760
  69.3852520  22.9185840  11.6477750  69.0657290  21.5077170  11.2014120
  61.9314130  24.8792030   6.2556430  61.5271130  24.1669280   5.7602330
  62.0177250  24.5345270   7.1444470  62.3995830  28.5659590   8.4195640
  62.1024120  27.9605060   7.7403420  63.3495650  28.6036900   8.3085000
  60.6442750  21.6535240  10.0355470  61.1957340  21.7630580   9.2608720
  61.1586260  22.0272840  10.7510700  70.4881440  32.1391460  12.0818740
  70.0112000  32.9463650  11.8891350  69.8043230  31.4869790  12.2344950
  61.4914260  28.3041280  15.0703440  60.5942790  28.5281250  15.3176840
  61.5167130  28.4276220  14.1214840  60.3185480  25.1754600  13.6460810
  60.1793250  26.0477400  14.0148210  59.4366840  24.8327410  13.5008750
  66.6414860  30.0930470   4.9525940  67.0810770  30.8354800   4.5381330
  66.5801750  30.3357040   5.8764900  62.1165830  31.1176300  15.8545960
  62.0881260  31.5219250  14.9874390  61.9530800  30.1886660  15.6917560
  58.6318760  23.7737010   3.7563080  58.5116360  24.4999100   3.1444350
  58.3219650  23.0039920   3.2790990  74.0680650  31.9003400  17.1510130
  74.5440370  32.3786290  17.8299210  74.6887810  31.8320890  16.4255630
  56.2704130  26.9452150   9.5631720  56.3484550  27.0800920   8.6187440
  56.8845810  26.2368040   9.7559840  57.5151760  28.6452340   5.9737900
  57.1079840  28.7866930   5.1191500  58.4064770  28.3612500   5.7709110
  73.4713900  29.0916250  14.3110140  73.5976960  28.8528130  13.3927320
  73.5135280  28.2600790  14.7832220  67.3330640  32.7944250  12.8804950
  67.8475310  32.7052260  13.6827380  66.4899720  33.1403950  13.1732860
  69.3085040  33.0799590   2.3088950  69.1486180  32.7902530   3.2070780
  69.1431750  32.3039720   1.7734180  61.7873420  32.8598120   4.0860570
  61.6115900  31.9433660   3.8728370  60.9329160  33.2185410   4.3258370
  68.5761100  32.2149860   4.9435440  69.0318050  31.4339240   5.2574060
  68.9153620  32.9256680   5.4876620  73.3237910  21.1448710  15.2759880
  72.7082180  21.6528380  14.7475340  73.0034330  20.2447040  15.2185820
  56.3263650  27.9866320  12.1026180  56.4894690  27.5171680  11.2845550
  56.7916100  27.4789880  12.7675020  61.0982420  17.1172080   7.1386750
  60.6550570  17.8981620   6.8071270  61.6567410  17.4401970   7.8457690
  65.3852230  19.9840600  12.7422070  64.9231600  20.1923620  13.5542010
  64.9830340  19.1699950  12.4392740  70.3856740  21.2049550  13.8718730
  69.5350330  20.9055300  14.1927800  70.2258530  21.4491560  12.9602550
  67.4806450  22.7051300  15.9717520  67.8059860  21.8715050  15.6319750
  68.2686780  23.2279820  16.1195850  63.1358320  17.6619410   8.9976350
  63.4330650  18.5682240   8.9168370  63.6843880  17.1738190   8.3835920
  60.8896640  22.2405650   4.8668000  60.6637560  22.0242820   5.7714620
  60.1089170  22.6734110   4.5213970  68.1194400  22.2469020   3.4658650
  67.5203290  22.9704820   3.2822270  68.6674010  22.1845800   2.6835100
  63.3295850  23.1391230  15.5328270  63.2339450  22.1985960  15.3828670
  64.1727830  23.3606300  15.1376340  66.7259270  20.8832560   5.4961930
  67.1188840  21.2004760   4.6830620  67.0876120  20.0044440   5.6106450
  58.4606390  19.5504900  13.6862050  58.0669780  20.3980110  13.8934830
  57.7724790  18.9131270  13.8770690  65.0351440  19.6339870  16.7558790
  64.3449760  19.4412070  17.3904880  65.7783740  19.9174510  17.2883090
  55.7623440  17.4733360   7.7192130  55.4736490  18.0436220   8.4317110
  56.5069200  16.9937810   8.0823360  67.3114410  23.4738310   9.5912710
  66.5795530  23.9825120   9.9402810  66.9138750  22.6568290   9.2901490
  63.7491800  20.1492510   7.9965200  63.7527860  19.7082460   7.1469740
  64.6442920  20.4709840   8.1037020  59.5994180  20.0319000   6.9559410
  59.2594230  20.5094230   7.7126460  58.8371500  19.5784120   6.5960510
  67.7740320  18.9271990   9.0035650  67.7913060  19.3780640   9.8477500
  67.5255900  18.0277630   9.2169090  71.2011070  16.3404170  14.8422030
  71.5256840  15.6093830  15.3680010  71.2367580  16.0217810  13.9403020
  57.9002630  27.3617750  14.2621990  57.5157420  26.7211420  14.8604950
  58.2114820  28.0653870  14.8316720  64.0499770  24.2094290   9.7430610
  64.4169900  23.7352860  10.4891950  63.8604830  25.0835860  10.0838950
  56.9140260  18.9537980   5.8724080  56.6287180  18.5893650   6.7102700
  56.8519120  18.2218440   5.2587220  61.8399140  23.2502930  12.0614820
  61.5356210  24.1294910  12.2865180  62.7945600  23.3102720  12.0972260
  60.3680930  27.4563920   2.6581670  59.5943190  26.9161540   2.4980390
  61.0975560  26.9370530   2.3199430  71.1268910  26.4529280   8.4508060
  71.8468030  26.9484570   8.0604170  70.9250730  25.7747170   7.8061930
  66.5878850  17.8467240   2.5937450  65.7743460  17.3480410   2.5182760
  66.3940800  18.6865490   2.1773800  66.5087710  26.5238340  14.3377060
  66.4425020  25.6034010  14.0834650  65.8792850  26.6213780  15.0521700
  60.4118330  27.1244300   6.2960480  60.9297000  26.3212560   6.2417370
  59.9602350  27.0623440   7.1377310  57.8962870  24.0905670  13.2086180
  57.5377810  24.7559520  13.7959520  57.6017430  23.2589220  13.5798800
  61.0975990  24.5489910  16.0925730  60.7976130  24.6947090  15.1953550
  61.8687230  23.9895200  15.9999120  66.4404440  29.3458910  14.0880860
  66.4548980  28.4139870  13.8699770  65.7329540  29.4318670  14.7270630
  72.6515650  25.9866250  13.4349440  71.9263840  26.5795030  13.2378830
  73.1791110  25.9789790  12.6362810  72.6028760  30.3840990   3.0861600
  71.9604920  29.7296610   3.3605320  72.2159420  30.7896080   2.3102270
  68.1815240  27.7126420   6.9333290  68.5339060  27.1154550   6.2734660
  67.2977570  27.3870650   7.1041540  64.2678520  28.4724110   4.3403700
  64.9549650  29.0193320   4.7211290  63.4810940  29.0164840   4.3753310
  63.5705730  25.4770140   3.9529060  64.0268510  26.2875390   4.1789250
  63.2193940  25.1593280   4.7847550  65.8738340  30.9876480  11.1821360
  66.5180560  31.1935860  11.8594780  66.2367780  30.2264880  10.7292210
  59.4717510  15.8207790   4.4251580  59.3432140  15.8125690   5.3736500
  58.6479530  16.1590880   4.0742590  67.1470420  28.9908830   9.8998810
  67.7892650  28.2901990  10.0130980  67.6719770  29.7707270   9.7195700
  68.9208040  29.7903730  13.1034870  69.2564280  30.3770420  13.7812790
  68.0008380  29.6596440  13.3332660  56.4711440  17.5798910  13.8858280
  55.7569960  17.7795830  14.4910890  56.8906480  16.8038480  14.2573080
  56.7584030  31.5679170  14.8724810  56.8675150  30.6273910  14.7320200
  56.1064590  31.8333920  14.2238540  64.7496620  29.8395060  16.2722930
  64.4293490  29.1204300  16.8168620  64.0754980  30.5150130  16.3458990
  67.9650220  20.0721220  11.6359730  68.3331040  19.2516430  11.9639300
  67.1048420  20.1323110  12.0515380  71.3312250  19.0278160   2.4447290
  70.7025410  19.1323830   1.7305520  70.8364170  19.2474940   3.2341170
  63.2996280  21.3064110   3.8605170  62.5912430  21.7750450   4.3018780
  63.5840760  20.6486120   4.4950360  64.9252210  22.7260810  11.8597700
  65.4237460  23.2006630  12.5249550  65.0675160  21.8024330  12.0667730
  67.3311710  18.0314770   5.3000960  67.2079490  18.0500900   4.3510470
  68.2796270  18.0793710   5.4199360  64.4188500  33.2670070   4.5728940
  64.6730000  33.2291460   3.6508310  63.4700980  33.1403400   4.5657190
  72.1319070  18.9428770  12.7026090  71.6292670  19.6834170  13.0419900
  72.9475730  19.3312770  12.3862880  70.4241080  24.1861950   6.1487450
  69.4831220  24.2012180   6.3235140  70.7385150  23.3997910   6.5947750
  72.4266660  31.3570800   7.8241710  72.5514080  32.1801970   8.2965520
  73.2932220  31.1461530   7.4765860  59.8984190  33.4502010   7.4958840
  60.6346670  32.9017470   7.7667410  60.2825110  34.3158020   7.3564830
  56.7829670  29.5175580   3.3700350  55.8569450  29.7596720   3.3605760
  57.2486100  30.3449840   3.2485100  58.9042470  32.6348080  16.6844420
  59.7055200  32.9560130  17.0979820  58.3894290  32.2743660  17.4064330
  67.7407100  28.7427950  16.6319830  67.1345260  28.7659550  15.8915580
  67.4361210  28.0110990  17.1687080  69.1707470  32.4708240  15.2429240
  70.1229220  32.3866260  15.1929480  69.0235690  33.1349950  15.9163030
  56.6240280  25.1221540  15.6280470  57.1279300  24.5428820  16.1996700
  55.8847700  25.4061770  16.1656840  63.6778220  26.5292530  15.1615990
  62.9123890  27.0977530  15.0770660  63.8594180  26.2368740  14.2684220
  70.8201570  28.2597860  15.7191010  71.5611040  28.5973620  15.2158470
  70.0574250  28.4289920  15.1660780  58.6563360  23.2651130  16.5230540
  58.6968700  22.9665000  17.4315770  59.5108860  23.6658740  16.3638060
  60.5969170  21.8443230  14.4905030  60.0665630  21.3534180  13.8628370
  61.2657240  22.2727430  13.9562960  69.4947230  26.3112690  14.2546220
  69.9088250  26.4657770  15.1036640  68.5598230  26.4367910  14.4172000
  69.9669400  23.6508850  16.2585370  70.5490170  22.8961170  16.1705850
  70.1431170  24.1816290  15.4816850  61.0841470  18.8105600  14.5702320
  60.9898340  18.1926350  13.8453190  60.5038860  19.5371890  14.3432230
  63.8502910  17.3678840  11.6029710  63.4020210  17.3903100  10.7575260
  63.2168110  16.9697860  12.2000010  64.2562460  26.2633170  12.2242150
  64.6750570  27.1065900  12.0518390  63.3371090  26.4005210  11.9948930
  66.5926360  23.9949350  13.6079990  66.7122570  23.3990490  14.3474830
  67.4520360  24.0319040  13.1881290  68.9314260  24.5486540  12.1842500
  68.4049480  25.0729160  11.5807640  69.2745600  25.1813930  12.8152230
  62.1069880  32.5686180  13.3399880  61.5690970  33.2932240  13.0208580
  62.3603840  32.0916520  12.5497220  63.3595130  20.5370700  14.8655810
  63.9494820  20.2286550  15.5533630  62.5415370  20.0650450  15.0215710
  68.1788560  20.1536510  15.0988830  67.4904080  19.4918050  15.0338820
  68.8994580  19.7074780  15.5437290  64.9632090  33.8037390  13.5986530
  64.8890790  34.7072530  13.9058900  64.0610930  33.4849290  13.5708600
  56.3659380  31.1311980   6.9020150  56.6962390  30.2633040   6.6698790
  56.7950380  31.3370500   7.7325110  60.9621300  29.4620990   4.5622120
  60.6616840  29.3385960   5.4626030  60.8558790  28.6029580   4.1537850
  56.8549590  31.9982570   9.6401780  56.4180580  32.1783370  10.4725930
  57.4227270  32.7557190   9.4983500  72.4911770  31.4999570  13.9279090
  71.8913760  31.5592130  13.1843010  72.6205670  30.5604550  14.0575940
  73.1869680  25.9864870   1.7683000  73.9488590  26.5561520   1.8742690
  73.2024050  25.4192070   2.5391310  56.6874020  24.5102800   5.9990660
  56.0322860  24.2414440   5.3550360  57.5251970  24.4007280   5.5492640
  74.1929650  26.8414970   6.6124930  74.5638480  26.0582290   6.2060900
  74.8331580  27.5304070   6.4342230  71.1763410  28.2251550  12.0255250
  70.3623250  28.6548710  12.2881040  71.5837610  28.8369960  11.4124300
  73.1354190  24.2168230   3.9184950  72.7597790  23.4496160   3.4866240
  72.4057310  24.5990930   4.4059880  57.7249950  24.8955370  10.5394000
  58.0922990  24.8082770  11.4190020  57.1560770  24.1321920  10.4400860
  72.5253810  23.3639750  13.5524470  72.2939900  23.1352500  12.6522420
  72.7858360  24.2839300  13.5069360  57.2765950  21.8064460  14.4452420
  56.3822000  21.7731220  14.7846130  57.8163500  22.0051250  15.2103670
  70.9641880  18.5896180  16.3304170  71.8412060  18.5979580  16.7138170
  70.9762720  17.8527020  15.7196520  72.4105150  22.4425720   7.2192190
  72.9342630  21.9488370   6.5882360  72.9964570  22.5776080   7.9639760
  72.5894870  22.5265590  10.7411740  71.6397580  22.4929130  10.8556730
  72.7707880  23.4365700  10.5061510  71.9005120  21.6999070   3.1584600
  72.3964240  21.4669940   3.9433480  71.7021190  20.8610910   2.7422240
  57.7805660  16.0812790   8.7935640  58.4281850  15.5310170   8.3530800
  58.2007500  16.3355940   9.6151450  73.3292280  20.3360020   5.6922280
  73.2191560  20.1816060   6.6304550  74.0899870  19.8080960   5.4497690
  71.6758000  16.2754150  12.1505280  72.3130220  16.8888290  12.5164470
  71.8232890  16.3114810  11.2054510  71.2339460  32.9770150   5.5523520
  71.8298530  32.6554720   4.8757940  71.4917610  32.5041970   6.3436790
  57.5337660  16.2368460  11.5360960  57.1852480  16.6932280  12.3019140
  57.2025360  15.3425590  11.6183390  59.1402030  29.4088060  15.7014150
  59.0971660  29.0380970  16.5828610  59.2713040  30.3465630  15.8415970
  62.8408060  30.9647650  11.3023870  62.5999420  31.2322210  10.4154390
  63.7810700  31.1353380  11.3574730  65.0462480  17.4280340  15.0580380
  64.9851370  18.0202170  15.8075790  65.9862860  17.3206300  14.9130640
  67.6837040  17.0850400  14.6972670  68.2977450  17.4029690  14.0353750
  68.2286600  16.5998990  15.3168530  74.1012220  32.9842030  12.1034510
  73.6070500  33.3810900  11.3861640  73.4925510  32.3591240  12.4971790
  58.2058300  15.7644660  14.8111730  58.7541290  15.5832710  14.0477840
  58.2713610  14.9738770  15.3468040  58.9790060  32.3550310  12.8211930
  58.3850380  32.2235010  13.5601970  58.9713900  31.5188450  12.3554030
  68.4245080  15.6482540  11.0241960  67.5504920  15.9817650  10.8214890
  68.3155830  15.1755720  11.8493830  69.3317060  17.8553410  12.4083680
  69.0030420  17.0405170  12.0285410  70.2799360  17.8123220  12.2849370
  71.7851670  33.6265450   9.3821250  71.3254640  34.3781260   9.0079270
  71.1564130  32.9071920   9.3236050  58.6102290  29.7208690  11.7719970
  57.8836350  29.1013980  11.7045920  58.6711440  30.1149300  10.9018050
  62.2147390  31.9353690   8.5569380  62.7312410  31.3241050   8.0317640
  62.8644770  32.4382470   9.0480390  64.9542890  32.8262180   9.3838360
  65.2420700  32.5716480   8.5071370  65.4666110  32.2739540   9.9743930
  66.1719900  16.5652380   9.9634870  65.3891690  17.0397880  10.2431630
  65.8782830  15.6607210   9.8548050  70.7240970  17.2675480   8.0083960
  71.1649060  17.2120580   7.1605560  70.4548560  18.1833490   8.0794140
  72.5879540  16.8990720   6.0192780  72.5267940  15.9551940   5.8723800
  73.3671570  17.0070810   6.5646240  56.8932290  33.0383080   4.9816730
  56.7254330  32.4053760   5.6798620  56.0266800  33.2442480   4.6310920
  57.5160310  16.8699860   2.4848590  58.2739670  16.9828740   1.9112620
  57.0537480  17.7069060   2.4392020  64.0574120  18.9839130   5.4750900
  63.2448630  18.6096020   5.1346780  64.5615760  18.2284210   5.7772090
  68.5599100  15.6481580   6.7133970  69.1628470  16.2201790   7.1882490
  67.8192090  16.2121020   6.4907870  71.7033700  16.0503140   1.9874250
  71.8984330  16.9486590   2.2541680  70.9163570  15.8190220   2.4807200
  58.4994990  31.7316310   2.4266870  57.9742610  32.1124340   1.7228830
  58.4239570  32.3567080   3.1476580  62.0823300  17.1339050   4.0795950
  61.4526040  16.4326360   4.2466080  61.5428440  17.8943180   3.8629110
  65.0215250  33.7478280  16.7506560  65.9482560  33.5122550  16.7942520
  65.0065680  34.5750280  16.2692590  73.2560310  33.2903850   3.7480810
  73.4312500  32.6041590   3.1041730  72.5581880  33.8150900   3.3557480
  62.2078860  16.4123030  16.5148440  61.9263130  16.9156630  15.7509260
  62.5898560  15.6144780  16.1490570  68.8094320  15.8276610  17.0928910
  68.6959770  16.1471220  17.9880430  69.6264060  16.2289120  16.7966190
  71.5892810  32.9748140  16.5747600  72.3818130  32.4797370  16.3673560
  71.8825960  33.6538280  17.1823210  67.7152470   5.0725590  81.3281100
  67.6346520   4.1580200  81.0572810  67.3016890   5.5692660  80.6220810
  65.8470510   6.8504610  83.2090370  65.0712610   6.3705050  83.4988940
  66.4983440   6.1710260  83.0346530  59.8636340   7.1624420  84.0866130
  59.0321220   6.9073130  84.4862640  60.4717320   7.2335190  84.8224050
  69.8677940  11.2564800  81.9889500  69.4059470  10.4852040  82.3176670
  70.6803490  11.2830870  82.4941950  59.8437600  11.1964510  84.2824150
  60.1465640  10.3062250  84.1034370  60.5881190  11.7534730  84.0546400
  58.2728290   2.1226310  77.8708520  57.3844990   2.4642280  77.7688400
  58.5569480   1.9226630  76.9789350  56.2361300   4.7231960  83.7548220
  56.8077410   3.9554160  83.7551860  56.2362840   5.0220720  82.8454830
  66.0941250  13.5422810  81.6093490  65.4752690  13.9980310  81.0387930
  66.9493030  13.6974270  81.2083190  65.2879500   9.5261800  83.2160530
  65.2187780   8.5851740  83.0549660  66.0499360   9.6163210  83.7883100
  58.0972840   2.6276820  84.1499490  58.7782950   2.8915190  84.7686890
  57.7820890   1.7877690  84.4837500  62.2897410   3.6744180  83.2372080
  62.7975630   4.1725150  83.8777100  62.8210650   2.8979380  83.0611440
  74.3908340   1.8449370  86.9401430  73.6860510   2.2331080  86.4216540
  74.6566260   2.5399660  87.5422360  66.9604600   8.4262050  79.0025400
  66.3421870   8.8911500  78.4388120  67.4727850   9.1189530  79.4194910
  61.8236360   7.9537920  85.6809000  61.4905740   8.5806840  86.3230070
  62.0003040   8.4799800  84.9010670  70.3370270   1.7683000  83.1485340
  69.6325840   2.0567890  83.7288450  70.6982430   2.5783110  82.7884900
  61.0355460   9.9218720  87.4958180  61.6529460  10.5969800  87.2142630
  60.1748580  10.3306700  87.4045680  56.3287800   9.1118580  76.3765030
  55.9515780   9.6005680  75.6449930  56.5860870   9.7843860  77.0071560
  71.9533050  11.3858130  85.4112820  71.2696570  12.0557240  85.4029490
  72.4927340  11.5838780  84.6457680  69.4891790  13.2302260  84.1258000
  69.5018950  12.8264550  83.2580260  68.9367010  14.0049550  84.0219430
  70.7837210   9.9518480  79.2148170  70.6733540   9.0092810  79.3397590
  70.7805460  10.3134120  80.1010930  68.8877230   8.1332100  85.4540610
  69.3046020   7.9192210  84.6194070  69.6117050   8.3904890  86.0249230
  66.3257490   5.5783800  78.5710660  65.3986770   5.5121180  78.7999130
  66.4782310   6.5163930  78.4565900  66.3126570   1.8500800  75.5677820
  65.3730240   2.0114760  75.6530280  66.6309830   2.5686480  75.0213810
  72.8339330   6.5319320  85.5456850  72.0057960   6.6012410  85.0706980
  73.4289810   7.1173630  85.0772680  70.3554780   7.1404100  79.0745910
  69.7367200   6.8023650  78.4272210  70.3379230   6.4963860  79.7825100
  69.7981340   3.3188640  86.4911720  69.3852520   4.1442350  86.7451710
  69.0657290   2.7333680  86.2988080  61.9314130   6.1048540  81.3530390
  61.5271130   5.3925790  80.8576290  62.0177250   5.7601780  82.2418430
  62.3995830   9.7916100  83.5169600  62.1024120   9.1861570  82.8377380
  63.3495650   9.8293410  83.4058960  60.6442750   2.8791750  85.1329430
  61.1957340   2.9887090  84.3582680  61.1586260   3.2529350  85.8484660
  70.4881440  13.3647970  87.1792700  70.0112000  14.1720160  86.9865310
  69.8043230  12.7126300  87.3318910  68.5319480   6.3790910  76.0818660
  68.9712760   5.5413340  75.9356480  69.2447900   7.0120310  76.1682800
  60.3185480   6.4011110  88.7434770  60.1793250   7.2733910  89.1122170
  59.4366840   6.0583920  88.5982710  66.6414860  11.3186980  80.0499900
  67.0810770  12.0611310  79.6355290  66.5801750  11.5613550  80.9738860
  58.6318760   4.9993520  78.8537040  58.5116360   5.7255610  78.2418310
  58.3219650   4.2296430  78.3764950  56.2704130   8.1708660  84.6605680
  56.3484550   8.3057430  83.7161400  56.8845810   7.4624550  84.8533800
  57.5151760   9.8708850  81.0711860  57.1079840  10.0123440  80.2165460
  58.4064770   9.5869010  80.8683070  67.3330640  14.0200760  87.9778910
  67.8475310  13.9308770  88.7801340  66.4899720  14.3660460  88.2706820
  69.3085040  14.3056100  77.4062910  69.1486180  14.0159040  78.3044740
  69.1431750  13.5296230  76.8708140  61.7873420  14.0854630  79.1834530
  61.6115900  13.1690170  78.9702330  60.9329160  14.4441920  79.4232330
  69.0111170  11.8143660  75.9660910  68.3176330  11.8120950  75.3063190
  69.7534030  11.3902980  75.5355080  68.5761100  13.4406370  80.0409400
  69.0318050  12.6595750  80.3548020  68.9153620  14.1513190  80.5850580
  56.3263650   9.2122830  87.2000140  56.4894690   8.7428190  86.3819510
  56.7916100   8.7046390  87.8648980  60.8896640   3.4662160  79.9641960
  60.6637560   3.2499330  80.8688580  60.1089170   3.8990620  79.6187930
  68.1194400   3.4725530  78.5632610  67.5203290   4.1961330  78.3796230
  68.6674010   3.4102310  77.7809060  55.9493670   2.6409990  74.0268810
  55.8668340   3.5840750  74.1683800  55.5976730   2.4984900  73.1481160
  67.3114410   4.6994820  84.6886670  66.5795530   5.2081630  85.0376770
  66.9138750   3.8824800  84.3875450  63.8111950   2.3761100  76.0845920
  63.9324770   2.3347580  77.0331740  63.4260460   3.2385250  75.9292650
  62.8233450   4.6862240  75.4829220  62.2550350   4.2380490  74.8565130
  63.5322450   5.0455020  74.9494370  64.0499770   5.4350800  84.8404570
  64.4169900   4.9609370  85.5865910  63.8604830   6.3092370  85.1812910
  61.8399140   4.4759440  87.1588780  61.5356210   5.3551420  87.3839140
  62.7945600   4.5359230  87.1946220  60.3680930   8.6820430  77.7555630
  59.5943190   8.1418050  77.5954350  61.0975560   8.1627040  77.4173390
  71.1268910   7.6785790  83.5482020  71.8468030   8.1741080  83.1578130
  70.9250730   7.0003680  82.9035890  69.3027240   3.4443400  75.9873570
  70.1906860   3.7560630  75.8124910  69.2732330   2.5715650  75.5954150
  60.4118330   8.3500810  81.3934440  60.9297000   7.5469070  81.3391330
  59.9602350   8.2879950  82.2351270  65.2987830   9.6167090  76.6661740
  65.6403530  10.3609320  76.1705060  64.4700540   9.9298210  77.0286570
  57.8962870   5.3162180  88.3060140  57.5377810   5.9816030  88.8933480
  57.6017430   4.4845730  88.6772760  71.5741510   4.7555240  75.4553430
  71.4905230   5.1869460  74.6049870  72.2935700   5.2153590  75.8880250
  72.6515650   7.2122760  88.5323400  71.9263840   7.8051540  88.3352790
  73.1791110   7.2046300  87.7336770  72.6028760  11.6097500  78.1835560
  71.9604920  10.9553120  78.4579280  72.2159420  12.0152590  77.4076230
  68.1815240   8.9382930  82.0307250  68.5339060   8.3411060  81.3708620
  67.2977570   8.6127160  82.2015500  64.2678520   9.6980620  79.4377660
  64.9549650  10.2449830  79.8185250  63.4810940  10.2421350  79.4727270
  56.4070920   5.3153440  74.9294740  57.2765770   5.5978240  75.2130660
  55.9161240   6.1289310  74.8143550  63.5705730   6.7026650  79.0503020
  64.0268510   7.5131900  79.2763210  63.2193940   6.3849790  79.8821510
  65.8738340  12.2132990  86.2795320  66.5180560  12.4192370  86.9568740
  66.2367780  11.4521390  85.8266170  67.1470420  10.2165340  84.9972770
  67.7892650   9.5158500  85.1104940  67.6719770  10.9963780  84.8169660
  70.9926140  10.5013960  74.7211910  70.7663720   9.7844400  75.3136550
  70.6022340  10.2526400  73.8833660  68.9208040  11.0160240  88.2008830
  69.2564280  11.6026930  88.8786750  68.0008380  10.8852950  88.4306620
  56.7742170  14.5280820  75.4956370  57.1339810  15.1270160  74.8413640
  56.6334510  15.0740710  76.2691400  70.5742390   8.4185900  76.3826070
  70.2864090   8.8798590  77.1703950  71.3694560   7.9583670  76.6510290
  62.7910790  11.9112020  76.3130040  62.7820890  12.6441710  75.6974550
  61.8709150  11.6643600  76.4057000  58.3917430   7.1326910  77.0576800
  57.7845380   7.8725810  77.0672100  58.8666780   7.2226270  76.2315000
  65.7770390  11.9740260  74.9755230  65.8782370  11.7704250  74.0457210
  64.8772130  11.7198540  75.1803010  63.2996280   2.5320620  78.9579130
  62.5912430   3.0006960  79.3992740  63.5840760   1.8742630  79.5924320
  64.9252210   3.9517320  86.9571660  65.4237460   4.4263140  87.6223510
  65.0675160   3.0280840  87.1641690  64.4188500  14.4926580  79.6702900
  64.6730000  14.4547970  78.7482270  63.4700980  14.3659910  79.6631150
  70.4241080   5.4118460  81.2461410  69.4831220   5.4268690  81.4209100
  70.7385150   4.6254420  81.6921710  60.4022720   7.0938060  74.8065370
  61.1685990   6.9819420  75.3690800  60.4797410   6.3976030  74.1542140
  59.0969480   4.5263130  75.4898260  59.1773070   3.5790640  75.6015660
  59.9889230   4.8570010  75.5958920  72.4266660  12.5827310  82.9215670
  72.5514080  13.4058480  83.3939480  73.2932220  12.3718040  82.5739820
  59.8984190  14.6758520  82.5932800  60.6346670  14.1273980  82.8641370
  60.2825110  15.5414530  82.4538790  56.7829670  10.7432090  78.4674310
  55.8569450  10.9853230  78.4579720  57.2486100  11.5706350  78.3459060
  63.0086500  13.8488830  74.4158370  63.8015110  14.1377660  73.9640160
  62.4890850  13.4181000  73.7370850  72.0616670  13.0758960  75.8395110
  71.7758180  12.6624100  75.0249290  71.8636220  14.0046670  75.7195630
  63.5263900   9.0692240  74.2800720  63.4214540   8.4544590  75.0062100
  63.3588120   8.5458130  73.4963730  66.7666630   8.1312270  74.8842710
  66.2176730   8.5781570  75.5285450  67.3885890   7.6261520  75.4080380
  62.4341750   7.0903190  76.7808010  62.8558170   6.9243060  77.6239400
  62.5592590   6.2803420  76.2863150  64.9469390   6.1140800  74.0285110
  65.4675050   5.3989820  73.6626260  65.5937790   6.7526670  74.3285620
  64.2562460   7.4889680  87.3216110  64.6750570   8.3322410  87.1492350
  63.3371090   7.6261720  87.0922890  68.9314260   5.7743050  87.2816460
  68.4049480   6.2985670  86.6781600  69.2745600   6.4070440  87.9126190
  61.3300650   3.1636420  73.7266170  61.1289710   2.3003780  74.0879510
  61.1592700   3.0769780  72.7887770  62.1069880  13.7942690  88.4373840
  61.5690970  14.5188750  88.1182540  62.3603840  13.3173030  87.6471180
  64.9632090  15.0293900  88.6960490  64.8890790  15.9329040  89.0032860
  64.0610930  14.7105800  88.6682560  65.5117420  14.1952410  76.3186850
  66.4068210  14.5337380  76.3405610  65.5435050  13.4731820  75.6911130
  59.1513580   9.5679460  74.5473850  59.5888450  10.1109130  75.2031430
  59.6361310   8.7426410  74.5570190  56.3659380  12.3568490  81.9994110
  56.6962390  11.4889550  81.7672750  56.7950380  12.5627010  82.8299070
  60.9621300  10.6877500  79.6596080  60.6616840  10.5642470  80.5599990
  60.8558790   9.8286090  79.2511810  56.8549590  13.2239080  84.7375740
  56.4180580  13.4039880  85.5699890  57.4227270  13.9813700  84.5957460
  73.7313220  10.4673900  74.3622760  72.9006180  10.5350550  74.8329990
  73.9085050  11.3578020  74.0589620  73.1869680   7.2121380  76.8656960
  73.9488590   7.7818030  76.9716650  73.2024050   6.6448580  77.6365270
  56.6874020   5.7359310  81.0964620  56.0322860   5.4670950  80.4524320
  57.5251970   5.6263790  80.6466600  74.1929650   8.0671480  81.7098890
  74.5638480   7.2838800  81.3034860  74.8331580   8.7560580  81.5316190
  71.1763410   9.4508060  87.1229210  70.3623250   9.8805220  87.3855000
  71.5837610  10.0626470  86.5098260  73.2388850   7.5055750  74.0229480
  73.5137690   8.4134630  73.8948700  73.0499590   7.4418280  74.9591470
  73.1354190   5.4424740  79.0158910  72.7597790   4.6752670  78.5840200
  72.4057310   5.8247440  79.5033840  57.7249950   6.1211880  85.6367960
  58.0922990   6.0339280  86.5163980  57.1560770   5.3578430  85.5374820
  72.5253810   4.5896260  88.6498430  72.2939900   4.3609010  87.7496380
  72.7858360   5.5095810  88.6043320  55.9012100   2.9458240  77.0389950
  54.9976180   3.2088440  76.8641610  56.3852720   3.2169410  76.2589910
  72.4105150   3.6682230  82.3166150  72.9342630   3.1744880  81.6856320
  72.9964570   3.8032590  83.0613720  72.5894870   3.7522100  85.8385700
  71.6397580   3.7185640  85.9530690  72.7707880   4.6622210  85.6035470
  71.9005120   2.9255580  78.2558560  72.3964240   2.6926450  79.0407440
  71.7021190   2.0867420  77.8396200  71.2339460  14.2026660  80.6497480
  71.8298530  13.8811230  79.9731900  71.4917610  13.7298480  81.4410750
  62.8408060  12.1904160  86.3997830  62.5999420  12.4578720  85.5128350
  63.7810700  12.3609890  86.4548690  74.1012220  14.2098540  87.2008470
  73.6070500  14.6067410  86.4835600  73.4925510  13.5847750  87.5945750
  58.9790060  13.5806820  87.9185890  58.3850380  13.4491520  88.6575930
  58.9713900  12.7444960  87.4527990  71.7851670  14.8521960  84.4795210
  71.3254640  15.6037770  84.1053230  71.1564130  14.1328430  84.4210010
  58.6102290  10.9465200  86.8693930  57.8836350  10.3270490  86.8019880
  58.6711440  11.3405810  85.9992010  62.2147390  13.1610200  83.6543340
  62.7312410  12.5497560  83.1291600  62.8644770  13.6638980  84.1454350
  64.9542890  14.0518690  84.4812320  65.2420700  13.7972990  83.6045330
  65.4666110  13.4996050  85.0717890  56.8932290  14.2639590  80.0790690
  56.7254330  13.6310270  80.7772580  56.0266800  14.4698990  79.7284880
  58.4994990  12.9572820  77.5240830  57.9742610  13.3380850  76.8202790
  58.4239570  13.5823590  78.2450540  73.2560310  14.5160360  78.8454770
  73.4312500  13.8298100  78.2015690  72.5581880  15.0407410  78.4531440
  61.0987960  14.9055200  76.3990080  61.8306780  14.6214480  75.8513970
  61.3581630  14.6668480  77.2889460  60.2602750  11.0219930  76.4036410
  59.6311630  11.4905030  76.9522240  60.3750580  10.1769150  76.8382600
  67.7152470   5.0725590  62.5537610  67.6346520   4.1580200  62.2829320
  67.3016890   5.5692660  61.8477320  65.8470510   6.8504610  64.4346880
  65.0712610   6.3705050  64.7245450  66.4983440   6.1710260  64.2603040
  59.8636340   7.1624420  65.3122640  59.0321220   6.9073130  65.7119150
  60.4717320   7.2335190  66.0480560  69.8677940  11.2564800  63.2146010
  69.4059470  10.4852040  63.5433180  70.6803490  11.2830870  63.7198460
  59.8437600  11.1964510  65.5080660  60.1465640  10.3062250  65.3290880
  60.5881190  11.7534730  65.2802910  58.2728290   2.1226310  59.0965030
  57.3844990   2.4642280  58.9944910  58.5569480   1.9226630  58.2045860
  56.2361300   4.7231960  64.9804730  56.8077410   3.9554160  64.9808370
  56.2362840   5.0220720  64.0711340  66.0941250  13.5422810  62.8350000
  65.4752690  13.9980310  62.2644440  66.9493030  13.6974270  62.4339700
  65.2879500   9.5261800  64.4417040  65.2187780   8.5851740  64.2806170
  66.0499360   9.6163210  65.0139610  58.0972840   2.6276820  65.3756000
  58.7782950   2.8915190  65.9943400  57.7820890   1.7877690  65.7094010
  62.2897410   3.6744180  64.4628590  62.7975630   4.1725150  65.1033610
  62.8210650   2.8979380  64.2867950  74.3908340   1.8449370  68.1657940
  73.6860510   2.2331080  67.6473050  74.6566260   2.5399660  68.7678870
  66.9604600   8.4262050  60.2281910  66.3421870   8.8911500  59.6644630
  67.4727850   9.1189530  60.6451420  61.8236360   7.9537920  66.9065510
  61.4905740   8.5806840  67.5486580  62.0003040   8.4799800  66.1267180
  70.3370270   1.7683000  64.3741850  69.6325840   2.0567890  64.9544960
  70.6982430   2.5783110  64.0141410  61.0355460   9.9218720  68.7214690
  61.6529460  10.5969800  68.4399140  60.1748580  10.3306700  68.6302190
  56.3287800   9.1118580  57.6021540  55.9515780   9.6005680  56.8706440
  56.5860870   9.7843860  58.2328070  71.9533050  11.3858130  66.6369330
  71.2696570  12.0557240  66.6286000  72.4927340  11.5838780  65.8714190
  69.4891790  13.2302260  65.3514510  69.5018950  12.8264550  64.4836770
  68.9367010  14.0049550  65.2475940  70.7837210   9.9518480  60.4404680
  70.6733540   9.0092810  60.5654100  70.7805460  10.3134120  61.3267440
  68.8877230   8.1332100  66.6797120  69.3046020   7.9192210  65.8450580
  69.6117050   8.3904890  67.2505740  66.3257490   5.5783800  59.7967170
  65.3986770   5.5121180  60.0255640  66.4782310   6.5163930  59.6822410
  66.3126570   1.8500800  56.7934330  65.3730240   2.0114760  56.8786790
  66.6309830   2.5686480  56.2470320  72.8339330   6.5319320  66.7713360
  72.0057960   6.6012410  66.2963490  73.4289810   7.1173630  66.3029190
  70.3554780   7.1404100  60.3002420  69.7367200   6.8023650  59.6528720
  70.3379230   6.4963860  61.0081610  69.7981340   3.3188640  67.7168230
  69.3852520   4.1442350  67.9708220  69.0657290   2.7333680  67.5244590
  61.9314130   6.1048540  62.5786900  61.5271130   5.3925790  62.0832800
  62.0177250   5.7601780  63.4674940  62.3995830   9.7916100  64.7426110
  62.1024120   9.1861570  64.0633890  63.3495650   9.8293410  64.6315470
  60.6442750   2.8791750  66.3585940  61.1957340   2.9887090  65.5839190
  61.1586260   3.2529350  67.0741170  70.4881440  13.3647970  68.4049210
  70.0112000  14.1720160  68.2121820  69.8043230  12.7126300  68.5575420
  61.4914260   9.5297790  71.3933910  60.5942790   9.7537760  71.6407310
  61.5167130   9.6532730  70.4445310  68.5319480   6.3790910  57.3075170
  68.9712760   5.5413340  57.1612990  69.2447900   7.0120310  57.3939310
  60.3185480   6.4011110  69.9691280  60.1793250   7.2733910  70.3378680
  59.4366840   6.0583920  69.8239220  66.6414860  11.3186980  61.2756410
  67.0810770  12.0611310  60.8611800  66.5801750  11.5613550  62.1995370
  62.1165830  12.3432810  72.1776430  62.0881260  12.7475760  71.3104860
  61.9530800  11.4143170  72.0148030  58.6318760   4.9993520  60.0793550
  58.5116360   5.7255610  59.4674820  58.3219650   4.2296430  59.6021460
  74.0680650  13.1259910  73.4740600  74.5440370  13.6042800  74.1529680
  74.6887810  13.0577400  72.7486100  56.2704130   8.1708660  65.8862190
  56.3484550   8.3057430  64.9417910  56.8845810   7.4624550  66.0790310
  57.5151760   9.8708850  62.2968370  57.1079840  10.0123440  61.4421970
  58.4064770   9.5869010  62.0939580  73.4713900  10.3172760  70.6340610
  73.5976960  10.0784640  69.7157790  73.5135280   9.4857300  71.1062690
  67.3330640  14.0200760  69.2035420  67.8475310  13.9308770  70.0057850
  66.4899720  14.3660460  69.4963330  69.3085040  14.3056100  58.6319420
  69.1486180  14.0159040  59.5301250  69.1431750  13.5296230  58.0964650
  61.7873420  14.0854630  60.4091040  61.6115900  13.1690170  60.1958840
  60.9329160  14.4441920  60.6488840  69.0111170  11.8143660  57.1917420
  68.3176330  11.8120950  56.5319700  69.7534030  11.3902980  56.7611590
  68.5761100  13.4406370  61.2665910  69.0318050  12.6595750  61.5804530
  68.9153620  14.1513190  61.8107090  56.3263650   9.2122830  68.4256650
  56.4894690   8.7428190  67.6076020  56.7916100   8.7046390  69.0905490
  70.3856740   2.4306060  70.1949200  69.5350330   2.1311810  70.5158270
  70.2258530   2.6748070  69.2833020  67.4806450   3.9307810  72.2947990
  67.8059860   3.0971560  71.9550220  68.2686780   4.4536330  72.4426320
  60.8896640   3.4662160  61.1898470  60.6637560   3.2499330  62.0945090
  60.1089170   3.8990620  60.8444440  68.1194400   3.4725530  59.7889120
  67.5203290   4.1961330  59.6052740  68.6674010   3.4102310  59.0065570
  63.3295850   4.3647740  71.8558740  63.2339450   3.4242470  71.7059140
  64.1727830   4.5862810  71.4606810  55.9493670   2.6409990  55.2525320
  55.8668340   3.5840750  55.3940310  55.5976730   2.4984900  54.3737670
  67.3114410   4.6994820  65.9143180  66.5795530   5.2081630  66.2633280
  66.9138750   3.8824800  65.6131960  63.8111950   2.3761100  57.3102430
  63.9324770   2.3347580  58.2588250  63.4260460   3.2385250  57.1549160
  62.8233450   4.6862240  56.7085730  62.2550350   4.2380490  56.0821640
  63.5322450   5.0455020  56.1750880  57.9002630   8.5874260  70.5852460
  57.5157420   7.9467930  71.1835420  58.2114820   9.2910380  71.1547190
  64.0499770   5.4350800  66.0661080  64.4169900   4.9609370  66.8122420
  63.8604830   6.3092370  66.4069420  61.8399140   4.4759440  68.3845290
  61.5356210   5.3551420  68.6095650  62.7945600   4.5359230  68.4202730
  60.3680930   8.6820430  58.9812140  59.5943190   8.1418050  58.8210860
  61.0975560   8.1627040  58.6429900  71.1268910   7.6785790  64.7738530
  71.8468030   8.1741080  64.3834640  70.9250730   7.0003680  64.1292400
  66.5087710   7.7494850  70.6607530  66.4425020   6.8290520  70.4065120
  65.8792850   7.8470290  71.3752170  69.3027240   3.4443400  57.2130080
  70.1906860   3.7560630  57.0381420  69.2732330   2.5715650  56.8210660
  60.4118330   8.3500810  62.6190950  60.9297000   7.5469070  62.5647840
  59.9602350   8.2879950  63.4607780  65.2987830   9.6167090  57.8918250
  65.6403530  10.3609320  57.3961570  64.4700540   9.9298210  58.2543080
  57.8962870   5.3162180  69.5316650  57.5377810   5.9816030  70.1189990
  57.6017430   4.4845730  69.9029270  61.0975990   5.7746420  72.4156200
  60.7976130   5.9203600  71.5184020  61.8687230   5.2151710  72.3229590
  66.4404440  10.5715420  70.4111330  66.4548980   9.6396380  70.1930240
  65.7329540  10.6575180  71.0501100  71.5741510   4.7555240  56.6809940
  71.4905230   5.1869460  55.8306380  72.2935700   5.2153590  57.1136760
  72.6515650   7.2122760  69.7579910  71.9263840   7.8051540  69.5609300
  73.1791110   7.2046300  68.9593280  72.6028760  11.6097500  59.4092070
  71.9604920  10.9553120  59.6835790  72.2159420  12.0152590  58.6332740
  68.1815240   8.9382930  63.2563760  68.5339060   8.3411060  62.5965130
  67.2977570   8.6127160  63.4272010  64.2678520   9.6980620  60.6634170
  64.9549650  10.2449830  61.0441760  63.4810940  10.2421350  60.6983780
  56.4070920   5.3153440  56.1551250  57.2765770   5.5978240  56.4387170
  55.9161240   6.1289310  56.0400060  63.5705730   6.7026650  60.2759530
  64.0268510   7.5131900  60.5019720  63.2193940   6.3849790  61.1078020
  65.8738340  12.2132990  67.5051830  66.5180560  12.4192370  68.1825250
  66.2367780  11.4521390  67.0522680  67.1470420  10.2165340  66.2229280
  67.7892650   9.5158500  66.3361450  67.6719770  10.9963780  66.0426170
  70.9926140  10.5013960  55.9468420  70.7663720   9.7844400  56.5393060
  70.6022340  10.2526400  55.1090170  68.9208040  11.0160240  69.4265340
  69.2564280  11.6026930  70.1043260  68.0008380  10.8852950  69.6563130
  56.7742170  14.5280820  56.7212880  57.1339810  15.1270160  56.0670150
  56.6334510  15.0740710  57.4947910  70.5742390   8.4185900  57.6082580
  70.2864090   8.8798590  58.3960460  71.3694560   7.9583670  57.8766800
  56.7584030  12.7935680  71.1955280  56.8675150  11.8530420  71.0550670
  56.1064590  13.0590430  70.5469010  64.7496620  11.0651570  72.5953400
  64.4293490  10.3460810  73.1399090  64.0754980  11.7406640  72.6689460
  62.7910790  11.9112020  57.5386550  62.7820890  12.6441710  56.9231060
  61.8709150  11.6643600  57.6313510  58.3917430   7.1326910  58.2833310
  57.7845380   7.8725810  58.2928610  58.8666780   7.2226270  57.4571510
  65.7770390  11.9740260  56.2011740  65.8782370  11.7704250  55.2713720
  64.8772130  11.7198540  56.4059520  63.2996280   2.5320620  60.1835640
  62.5912430   3.0006960  60.6249250  63.5840760   1.8742630  60.8180830
  64.9252210   3.9517320  68.1828170  65.4237460   4.4263140  68.8480020
  65.0675160   3.0280840  68.3898200  64.4188500  14.4926580  60.8959410
  64.6730000  14.4547970  59.9738780  63.4700980  14.3659910  60.8887660
  70.4241080   5.4118460  62.4717920  69.4831220   5.4268690  62.6465610
  70.7385150   4.6254420  62.9178220  60.4022720   7.0938060  56.0321880
  61.1685990   6.9819420  56.5947310  60.4797410   6.3976030  55.3798650
  59.0969480   4.5263130  56.7154770  59.1773070   3.5790640  56.8272170
  59.9889230   4.8570010  56.8215430  72.4266660  12.5827310  64.1472180
  72.5514080  13.4058480  64.6195990  73.2932220  12.3718040  63.7996330
  59.8984190  14.6758520  63.8189310  60.6346670  14.1273980  64.0897880
  60.2825110  15.5414530  63.6795300  56.7829670  10.7432090  59.6930820
  55.8569450  10.9853230  59.6836230  57.2486100  11.5706350  59.5715570
  58.9042470  13.8604590  73.0074890  59.7055200  14.1816640  73.4210290
  58.3894290  13.5000170  73.7294800  63.0086500  13.8488830  55.6414880
  63.8015110  14.1377660  55.1896670  62.4890850  13.4181000  54.9627360
  67.7407100   9.9684460  72.9550300  67.1345260   9.9916060  72.2146050
  67.4361210   9.2367500  73.4917550  69.1707470  13.6964750  71.5659710
  70.1229220  13.6122770  71.5159950  69.0235690  14.3606460  72.2393500
  72.0616670  13.0758960  57.0651620  71.7758180  12.6624100  56.2505800
  71.8636220  14.0046670  56.9452140  56.6240280   6.3478050  71.9510940
  57.1279300   5.7685330  72.5227170  55.8847700   6.6318280  72.4887310
  63.5263900   9.0692240  55.5057230  63.4214540   8.4544590  56.2318610
  63.3588120   8.5458130  54.7220240  63.6778220   7.7549040  71.4846460
  62.9123890   8.3234040  71.4001130  63.8594180   7.4625250  70.5914690
  66.7666630   8.1312270  56.1099220  66.2176730   8.5781570  56.7541960
  67.3885890   7.6261520  56.6336890  70.8201570   9.4854370  72.0421480
  71.5611040   9.8230130  71.5388940  70.0574250   9.6546430  71.4891250
  58.6563360   4.4907640  72.8461010  58.6968700   4.1921510  73.7546240
  59.5108860   4.8915250  72.6868530  62.4341750   7.0903190  58.0064520
  62.8558170   6.9243060  58.8495910  62.5592590   6.2803420  57.5119660
  60.5969170   3.0699740  70.8135500  60.0665630   2.5790690  70.1858840
  61.2657240   3.4983940  70.2793430  64.9469390   6.1140800  55.2541620
  65.4675050   5.3989820  54.8882770  65.5937790   6.7526670  55.5542130
  69.4947230   7.5369200  70.5776690  69.9088250   7.6914280  71.4267110
  68.5598230   7.6624420  70.7402470  69.9669400   4.8765360  72.5815840
  70.5490170   4.1217680  72.4936320  70.1431170   5.4072800  71.8047320
  64.2562460   7.4889680  68.5472620  64.6750570   8.3322410  68.3748860
  63.3371090   7.6261720  68.3179400  66.5926360   5.2205860  69.9310460
  66.7122570   4.6247000  70.6705300  67.4520360   5.2575550  69.5111760
  68.9314260   5.7743050  68.5072970  68.4049480   6.2985670  67.9038110
  69.2745600   6.4070440  69.1382700  61.3300650   3.1636420  54.9522680
  61.1289710   2.3003780  55.3136020  61.1592700   3.0769780  54.0144280
  62.1069880  13.7942690  69.6630350  61.5690970  14.5188750  69.3439050
  62.3603840  13.3173030  68.8727690  64.9632090  15.0293900  69.9217000
  64.8890790  15.9329040  70.2289370  64.0610930  14.7105800  69.8939070
  65.5117420  14.1952410  57.5443360  66.4068210  14.5337380  57.5662120
  65.5435050  13.4731820  56.9167640  59.1513580   9.5679460  55.7730360
  59.5888450  10.1109130  56.4287940  59.6361310   8.7426410  55.7826700
  56.3659380  12.3568490  63.2250620  56.6962390  11.4889550  62.9929260
  56.7950380  12.5627010  64.0555580  60.9621300  10.6877500  60.8852590
  60.6616840  10.5642470  61.7856500  60.8558790   9.8286090  60.4768320
  56.8549590  13.2239080  65.9632250  56.4180580  13.4039880  66.7956400
  57.4227270  13.9813700  65.8213970  72.4911770  12.7256080  70.2509560
  71.8913760  12.7848640  69.5073480  72.6205670  11.7861060  70.3806410
  73.7313220  10.4673900  55.5879270  72.9006180  10.5350550  56.0586500
  73.9085050  11.3578020  55.2846130  73.1869680   7.2121380  58.0913470
  73.9488590   7.7818030  58.1973160  73.2024050   6.6448580  58.8621780
  56.6874020   5.7359310  62.3221130  56.0322860   5.4670950  61.6780830
  57.5251970   5.6263790  61.8723110  74.1929650   8.0671480  62.9355400
  74.5638480   7.2838800  62.5291370  74.8331580   8.7560580  62.7572700
  71.1763410   9.4508060  68.3485720  70.3623250   9.8805220  68.6111510
  71.5837610  10.0626470  67.7354770  73.2388850   7.5055750  55.2485990
  73.5137690   8.4134630  55.1205210  73.0499590   7.4418280  56.1847980
  73.1354190   5.4424740  60.2415420  72.7597790   4.6752670  59.8096710
  72.4057310   5.8247440  60.7290350  57.7249950   6.1211880  66.8624470
  58.0922990   6.0339280  67.7420490  57.1560770   5.3578430  66.7631330
  72.5253810   4.5896260  69.8754940  72.2939900   4.3609010  68.9752890
  72.7858360   5.5095810  69.8299830  57.2765950   3.0320970  70.7682890
  56.3822000   2.9987730  71.1076600  57.8163500   3.2307760  71.5334140
  55.9012100   2.9458240  58.2646460  54.9976180   3.2088440  58.0898120
  56.3852720   3.2169410  57.4846420  72.4105150   3.6682230  63.5422660
  72.9342630   3.1744880  62.9112830  72.9964570   3.8032590  64.2870230
  72.5894870   3.7522100  67.0642210  71.6397580   3.7185640  67.1787200
  72.7707880   4.6622210  66.8291980  71.9005120   2.9255580  59.4815070
  72.3964240   2.6926450  60.2663950  71.7021190   2.0867420  59.0652710
  71.2339460  14.2026660  61.8753990  71.8298530  13.8811230  61.1988410
  71.4917610  13.7298480  62.6667260  59.1402030  10.6344570  72.0244620
  59.0971660  10.2637480  72.9059080  59.2713040  11.5722140  72.1646440
  62.8408060  12.1904160  67.6254340  62.5999420  12.4578720  66.7384860
  63.7810700  12.3609890  67.6805200  74.1012220  14.2098540  68.4264980
  73.6070500  14.6067410  67.7092110  73.4925510  13.5847750  68.8202260
  58.9790060  13.5806820  69.1442400  58.3850380  13.4491520  69.8832440
  58.9713900  12.7444960  68.6784500  71.7851670  14.8521960  65.7051720
  71.3254640  15.6037770  65.3309740  71.1564130  14.1328430  65.6466520
  58.6102290  10.9465200  68.0950440  57.8836350  10.3270490  68.0276390
  58.6711440  11.3405810  67.2248520  62.2147390  13.1610200  64.8799850
  62.7312410  12.5497560  64.3548110  62.8644770  13.6638980  65.3710860
  64.9542890  14.0518690  65.7068830  65.2420700  13.7972990  64.8301840
  65.4666110  13.4996050  66.2974400  56.8932290  14.2639590  61.3047200
  56.7254330  13.6310270  62.0029090  56.0266800  14.4698990  60.9541390
  58.4994990  12.9572820  58.7497340  57.9742610  13.3380850  58.0459300
  58.4239570  13.5823590  59.4707050  65.0215250  14.9734790  73.0737030
  65.9482560  14.7379060  73.1172990  65.0065680  15.8006790  72.5923060
  73.2560310  14.5160360  60.0711280  73.4312500  13.8298100  59.4272200
  72.5581880  15.0407410  59.6787950  61.0987960  14.9055200  57.6246590
  61.8306780  14.6214480  57.0770480  61.3581630  14.6668480  58.5145970
  60.2602750  11.0219930  57.6292920  59.6311630  11.4905030  58.1778750
  60.3750580  10.1769150  58.0639110  71.5892810  14.2004650  72.8978070
  72.3818130  13.7053880  72.6904030  71.8825960  14.8794790  73.5053680
  67.7152470   5.0725590  43.7794120  67.6346520   4.1580200  43.5085830
  67.3016890   5.5692660  43.0733830  65.8470510   6.8504610  45.6603390
  65.0712610   6.3705050  45.9501960  66.4983440   6.1710260  45.4859550
  59.8636340   7.1624420  46.5379150  59.0321220   6.9073130  46.9375660
  60.4717320   7.2335190  47.2737070  69.8677940  11.2564800  44.4402520
  69.4059470  10.4852040  44.7689690  70.6803490  11.2830870  44.9454970
  59.8437600  11.1964510  46.7337170  60.1465640  10.3062250  46.5547390
  60.5881190  11.7534730  46.5059420  58.2728290   2.1226310  40.3221540
  57.3844990   2.4642280  40.2201420  58.5569480   1.9226630  39.4302370
  56.2361300   4.7231960  46.2061240  56.8077410   3.9554160  46.2064880
  56.2362840   5.0220720  45.2967850  66.0941250  13.5422810  44.0606510
  65.4752690  13.9980310  43.4900950  66.9493030  13.6974270  43.6596210
  65.2879500   9.5261800  45.6673550  65.2187780   8.5851740  45.5062680
  66.0499360   9.6163210  46.2396120  58.0972840   2.6276820  46.6012510
  58.7782950   2.8915190  47.2199910  57.7820890   1.7877690  46.9350520
  62.2897410   3.6744180  45.6885100  62.7975630   4.1725150  46.3290120
  62.8210650   2.8979380  45.5124460  74.3908340   1.8449370  49.3914450
  73.6860510   2.2331080  48.8729560  74.6566260   2.5399660  49.9935380
  66.9604600   8.4262050  41.4538420  66.3421870   8.8911500  40.8901140
  67.4727850   9.1189530  41.8707930  61.8236360   7.9537920  48.1322020
  61.4905740   8.5806840  48.7743090  62.0003040   8.4799800  47.3523690
  70.3370270   1.7683000  45.5998360  69.6325840   2.0567890  46.1801470
  70.6982430   2.5783110  45.2397920  61.0355460   9.9218720  49.9471200
  61.6529460  10.5969800  49.6655650  60.1748580  10.3306700  49.8558700
  56.3287800   9.1118580  38.8278050  55.9515780   9.6005680  38.0962950
  56.5860870   9.7843860  39.4584580  71.9533050  11.3858130  47.8625840
  71.2696570  12.0557240  47.8542510  72.4927340  11.5838780  47.0970700
  69.4891790  13.2302260  46.5771020  69.5018950  12.8264550  45.7093280
  68.9367010  14.0049550  46.4732450  70.7837210   9.9518480  41.6661190
  70.6733540   9.0092810  41.7910610  70.7805460  10.3134120  42.5523950
  68.8877230   8.1332100  47.9053630  69.3046020   7.9192210  47.0707090
  69.6117050   8.3904890  48.4762250  66.3257490   5.5783800  41.0223680
  65.3986770   5.5121180  41.2512150  66.4782310   6.5163930  40.9078920
  66.3126570   1.8500800  38.0190840  65.3730240   2.0114760  38.1043300
  66.6309830   2.5686480  37.4726830  72.8339330   6.5319320  47.9969870
  72.0057960   6.6012410  47.5220000  73.4289810   7.1173630  47.5285700
  70.3554780   7.1404100  41.5258930  69.7367200   6.8023650  40.8785230
  70.3379230   6.4963860  42.2338120  69.7981340   3.3188640  48.9424740
  69.3852520   4.1442350  49.1964730  69.0657290   2.7333680  48.7501100
  61.9314130   6.1048540  43.8043410  61.5271130   5.3925790  43.3089310
  62.0177250   5.7601780  44.6931450  62.3995830   9.7916100  45.9682620
  62.1024120   9.1861570  45.2890400  63.3495650   9.8293410  45.8571980
  60.6442750   2.8791750  47.5842450  61.1957340   2.9887090  46.8095700
  61.1586260   3.2529350  48.2997680  70.4881440  13.3647970  49.6305720
  70.0112000  14.1720160  49.4378330  69.8043230  12.7126300  49.7831930
  61.4914260   9.5297790  52.6190420  60.5942790   9.7537760  52.8663820
  61.5167130   9.6532730  51.6701820  68.5319480   6.3790910  38.5331680
  68.9712760   5.5413340  38.3869500  69.2447900   7.0120310  38.6195820
  60.3185480   6.4011110  51.1947790  60.1793250   7.2733910  51.5635190
  59.4366840   6.0583920  51.0495730  66.6414860  11.3186980  42.5012920
  67.0810770  12.0611310  42.0868310  66.5801750  11.5613550  43.4251880
  62.1165830  12.3432810  53.4032940  62.0881260  12.7475760  52.5361370
  61.9530800  11.4143170  53.2404540  58.6318760   4.9993520  41.3050060
  58.5116360   5.7255610  40.6931330  58.3219650   4.2296430  40.8277970
  74.0680650  13.1259910  54.6997110  74.5440370  13.6042800  55.3786190
  74.6887810  13.0577400  53.9742610  56.2704130   8.1708660  47.1118700
  56.3484550   8.3057430  46.1674420  56.8845810   7.4624550  47.3046820
  57.5151760   9.8708850  43.5224880  57.1079840  10.0123440  42.6678480
  58.4064770   9.5869010  43.3196090  73.4713900  10.3172760  51.8597120
  73.5976960  10.0784640  50.9414300  73.5135280   9.4857300  52.3319200
  67.3330640  14.0200760  50.4291930  67.8475310  13.9308770  51.2314360
  66.4899720  14.3660460  50.7219840  69.3085040  14.3056100  39.8575930
  69.1486180  14.0159040  40.7557760  69.1431750  13.5296230  39.3221160
  61.7873420  14.0854630  41.6347550  61.6115900  13.1690170  41.4215350
  60.9329160  14.4441920  41.8745350  69.0111170  11.8143660  38.4173930
  68.3176330  11.8120950  37.7576210  69.7534030  11.3902980  37.9868100
  68.5761100  13.4406370  42.4922420  69.0318050  12.6595750  42.8061040
  68.9153620  14.1513190  43.0363600  56.3263650   9.2122830  49.6513160
  56.4894690   8.7428190  48.8332530  56.7916100   8.7046390  50.3162000
  70.3856740   2.4306060  51.4205710  69.5350330   2.1311810  51.7414780
  70.2258530   2.6748070  50.5089530  67.4806450   3.9307810  53.5204500
  67.8059860   3.0971560  53.1806730  68.2686780   4.4536330  53.6682830
  60.8896640   3.4662160  42.4154980  60.6637560   3.2499330  43.3201600
  60.1089170   3.8990620  42.0700950  68.1194400   3.4725530  41.0145630
  67.5203290   4.1961330  40.8309250  68.6674010   3.4102310  40.2322080
  63.3295850   4.3647740  53.0815250  63.2339450   3.4242470  52.9315650
  64.1727830   4.5862810  52.6863320  55.9493670   2.6409990  36.4781830
  55.8668340   3.5840750  36.6196820  55.5976730   2.4984900  35.5994180
  67.3114410   4.6994820  47.1399690  66.5795530   5.2081630  47.4889790
  66.9138750   3.8824800  46.8388470  63.8111950   2.3761100  38.5358940
  63.9324770   2.3347580  39.4844760  63.4260460   3.2385250  38.3805670
  62.8233450   4.6862240  37.9342240  62.2550350   4.2380490  37.3078150
  63.5322450   5.0455020  37.4007390  57.9002630   8.5874260  51.8108970
  57.5157420   7.9467930  52.4091930  58.2114820   9.2910380  52.3803700
  64.0499770   5.4350800  47.2917590  64.4169900   4.9609370  48.0378930
  63.8604830   6.3092370  47.6325930  61.8399140   4.4759440  49.6101800
  61.5356210   5.3551420  49.8352160  62.7945600   4.5359230  49.6459240
  60.3680930   8.6820430  40.2068650  59.5943190   8.1418050  40.0467370
  61.0975560   8.1627040  39.8686410  71.1268910   7.6785790  45.9995040
  71.8468030   8.1741080  45.6091150  70.9250730   7.0003680  45.3548910
  66.5087710   7.7494850  51.8864040  66.4425020   6.8290520  51.6321630
  65.8792850   7.8470290  52.6008680  69.3027240   3.4443400  38.4386590
  70.1906860   3.7560630  38.2637930  69.2732330   2.5715650  38.0467170
  60.4118330   8.3500810  43.8447460  60.9297000   7.5469070  43.7904350
  59.9602350   8.2879950  44.6864290  65.2987830   9.6167090  39.1174760
  65.6403530  10.3609320  38.6218080  64.4700540   9.9298210  39.4799590
  57.8962870   5.3162180  50.7573160  57.5377810   5.9816030  51.3446500
  57.6017430   4.4845730  51.1285780  61.0975990   5.7746420  53.6412710
  60.7976130   5.9203600  52.7440530  61.8687230   5.2151710  53.5486100
  66.4404440  10.5715420  51.6367840  66.4548980   9.6396380  51.4186750
  65.7329540  10.6575180  52.2757610  71.5741510   4.7555240  37.9066450
  71.4905230   5.1869460  37.0562890  72.2935700   5.2153590  38.3393270
  72.6515650   7.2122760  50.9836420  71.9263840   7.8051540  50.7865810
  73.1791110   7.2046300  50.1849790  72.6028760  11.6097500  40.6348580
  71.9604920  10.9553120  40.9092300  72.2159420  12.0152590  39.8589250
  68.1815240   8.9382930  44.4820270  68.5339060   8.3411060  43.8221640
  67.2977570   8.6127160  44.6528520  64.2678520   9.6980620  41.8890680
  64.9549650  10.2449830  42.2698270  63.4810940  10.2421350  41.9240290
  56.4070920   5.3153440  37.3807760  57.2765770   5.5978240  37.6643680
  55.9161240   6.1289310  37.2656570  63.5705730   6.7026650  41.5016040
  64.0268510   7.5131900  41.7276230  63.2193940   6.3849790  42.3334530
  65.8738340  12.2132990  48.7308340  66.5180560  12.4192370  49.4081760
  66.2367780  11.4521390  48.2779190  67.1470420  10.2165340  47.4485790
  67.7892650   9.5158500  47.5617960  67.6719770  10.9963780  47.2682680
  70.9926140  10.5013960  37.1724930  70.7663720   9.7844400  37.7649570
  70.6022340  10.2526400  36.3346680  68.9208040  11.0160240  50.6521850
  69.2564280  11.6026930  51.3299770  68.0008380  10.8852950  50.8819640
  56.7742170  14.5280820  37.9469390  57.1339810  15.1270160  37.2926660
  56.6334510  15.0740710  38.7204420  70.5742390   8.4185900  38.8339090
  70.2864090   8.8798590  39.6216970  71.3694560   7.9583670  39.1023310
  56.7584030  12.7935680  52.4211790  56.8675150  11.8530420  52.2807180
  56.1064590  13.0590430  51.7725520  64.7496620  11.0651570  53.8209910
  64.4293490  10.3460810  54.3655600  64.0754980  11.7406640  53.8945970
  62.7910790  11.9112020  38.7643060  62.7820890  12.6441710  38.1487570
  61.8709150  11.6643600  38.8570020  58.3917430   7.1326910  39.5089820
  57.7845380   7.8725810  39.5185120  58.8666780   7.2226270  38.6828020
  65.7770390  11.9740260  37.4268250  65.8782370  11.7704250  36.4970230
  64.8772130  11.7198540  37.6316030  63.2996280   2.5320620  41.4092150
  62.5912430   3.0006960  41.8505760  63.5840760   1.8742630  42.0437340
  64.9252210   3.9517320  49.4084680  65.4237460   4.4263140  50.0736530
  65.0675160   3.0280840  49.6154710  64.4188500  14.4926580  42.1215920
  64.6730000  14.4547970  41.1995290  63.4700980  14.3659910  42.1144170
  70.4241080   5.4118460  43.6974430  69.4831220   5.4268690  43.8722120
  70.7385150   4.6254420  44.1434730  60.4022720   7.0938060  37.2578390
  61.1685990   6.9819420  37.8203820  60.4797410   6.3976030  36.6055160
  59.0969480   4.5263130  37.9411280  59.1773070   3.5790640  38.0528680
  59.9889230   4.8570010  38.0471940  72.4266660  12.5827310  45.3728690
  72.5514080  13.4058480  45.8452500  73.2932220  12.3718040  45.0252840
  59.8984190  14.6758520  45.0445820  60.6346670  14.1273980  45.3154390
  60.2825110  15.5414530  44.9051810  56.7829670  10.7432090  40.9187330
  55.8569450  10.9853230  40.9092740  57.2486100  11.5706350  40.7972080
  58.9042470  13.8604590  54.2331400  59.7055200  14.1816640  54.6466800
  58.3894290  13.5000170  54.9551310  63.0086500  13.8488830  36.8671390
  63.8015110  14.1377660  36.4153180  62.4890850  13.4181000  36.1883870
  67.7407100   9.9684460  54.1806810  67.1345260   9.9916060  53.4402560
  67.4361210   9.2367500  54.7174060  69.1707470  13.6964750  52.7916220
  70.1229220  13.6122770  52.7416460  69.0235690  14.3606460  53.4650010
  72.0616670  13.0758960  38.2908130  71.7758180  12.6624100  37.4762310
  71.8636220  14.0046670  38.1708650  56.6240280   6.3478050  53.1767450
  57.1279300   5.7685330  53.7483680  55.8847700   6.6318280  53.7143820
  63.5263900   9.0692240  36.7313740  63.4214540   8.4544590  37.4575120
  63.3588120   8.5458130  35.9476750  63.6778220   7.7549040  52.7102970
  62.9123890   8.3234040  52.6257640  63.8594180   7.4625250  51.8171200
  66.7666630   8.1312270  37.3355730  66.2176730   8.5781570  37.9798470
  67.3885890   7.6261520  37.8593400  70.8201570   9.4854370  53.2677990
  71.5611040   9.8230130  52.7645450  70.0574250   9.6546430  52.7147760
  58.6563360   4.4907640  54.0717520  58.6968700   4.1921510  54.9802750
  59.5108860   4.8915250  53.9125040  62.4341750   7.0903190  39.2321030
  62.8558170   6.9243060  40.0752420  62.5592590   6.2803420  38.7376170
  60.5969170   3.0699740  52.0392010  60.0665630   2.5790690  51.4115350
  61.2657240   3.4983940  51.5049940  64.9469390   6.1140800  36.4798130
  65.4675050   5.3989820  36.1139280  65.5937790   6.7526670  36.7798640
  69.4947230   7.5369200  51.8033200  69.9088250   7.6914280  52.6523620
  68.5598230   7.6624420  51.9658980  69.9669400   4.8765360  53.8072350
  70.5490170   4.1217680  53.7192830  70.1431170   5.4072800  53.0303830
  64.2562460   7.4889680  49.7729130  64.6750570   8.3322410  49.6005370
  63.3371090   7.6261720  49.5435910  66.5926360   5.2205860  51.1566970
  66.7122570   4.6247000  51.8961810  67.4520360   5.2575550  50.7368270
  68.9314260   5.7743050  49.7329480  68.4049480   6.2985670  49.1294620
  69.2745600   6.4070440  50.3639210  61.3300650   3.1636420  36.1779190
  61.1289710   2.3003780  36.5392530  61.1592700   3.0769780  35.2400790
  62.1069880  13.7942690  50.8886860  61.5690970  14.5188750  50.5695560
  62.3603840  13.3173030  50.0984200  64.9632090  15.0293900  51.1473510
  64.8890790  15.9329040  51.4545880  64.0610930  14.7105800  51.1195580
  65.5117420  14.1952410  38.7699870  66.4068210  14.5337380  38.7918630
  65.5435050  13.4731820  38.1424150  59.1513580   9.5679460  36.9986870
  59.5888450  10.1109130  37.6544450  59.6361310   8.7426410  37.0083210
  56.3659380  12.3568490  44.4507130  56.6962390  11.4889550  44.2185770
  56.7950380  12.5627010  45.2812090  60.9621300  10.6877500  42.1109100
  60.6616840  10.5642470  43.0113010  60.8558790   9.8286090  41.7024830
  56.8549590  13.2239080  47.1888760  56.4180580  13.4039880  48.0212910
  57.4227270  13.9813700  47.0470480  72.4911770  12.7256080  51.4766070
  71.8913760  12.7848640  50.7329990  72.6205670  11.7861060  51.6062920
  73.7313220  10.4673900  36.8135780  72.9006180  10.5350550  37.2843010
  73.9085050  11.3578020  36.5102640  73.1869680   7.2121380  39.3169980
  73.9488590   7.7818030  39.4229670  73.2024050   6.6448580  40.0878290
  56.6874020   5.7359310  43.5477640  56.0322860   5.4670950  42.9037340
  57.5251970   5.6263790  43.0979620  74.1929650   8.0671480  44.1611910
  74.5638480   7.2838800  43.7547880  74.8331580   8.7560580  43.9829210
  71.1763410   9.4508060  49.5742230  70.3623250   9.8805220  49.8368020
  71.5837610  10.0626470  48.9611280  73.2388850   7.5055750  36.4742500
  73.5137690   8.4134630  36.3461720  73.0499590   7.4418280  37.4104490
  73.1354190   5.4424740  41.4671930  72.7597790   4.6752670  41.0353220
  72.4057310   5.8247440  41.9546860  57.7249950   6.1211880  48.0880980
  58.0922990   6.0339280  48.9677000  57.1560770   5.3578430  47.9887840
  72.5253810   4.5896260  51.1011450  72.2939900   4.3609010  50.2009400
  72.7858360   5.5095810  51.0556340  57.2765950   3.0320970  51.9939400
  56.3822000   2.9987730  52.3333110  57.8163500   3.2307760  52.7590650
  55.9012100   2.9458240  39.4902970  54.9976180   3.2088440  39.3154630
  56.3852720   3.2169410  38.7102930  72.4105150   3.6682230  44.7679170
  72.9342630   3.1744880  44.1369340  72.9964570   3.8032590  45.5126740
  72.5894870   3.7522100  48.2898720  71.6397580   3.7185640  48.4043710
  72.7707880   4.6622210  48.0548490  71.9005120   2.9255580  40.7071580
  72.3964240   2.6926450  41.4920460  71.7021190   2.0867420  40.2909220
  71.2339460  14.2026660  43.1010500  71.8298530  13.8811230  42.4244920
  71.4917610  13.7298480  43.8923770  59.1402030  10.6344570  53.2501130
  59.0971660  10.2637480  54.1315590  59.2713040  11.5722140  53.3902950
  62.8408060  12.1904160  48.8510850  62.5999420  12.4578720  47.9641370
  63.7810700  12.3609890  48.9061710  74.1012220  14.2098540  49.6521490
  73.6070500  14.6067410  48.9348620  73.4925510  13.5847750  50.0458770
  58.9790060  13.5806820  50.3698910  58.3850380  13.4491520  51.1088950
  58.9713900  12.7444960  49.9041010  71.7851670  14.8521960  46.9308230
  71.3254640  15.6037770  46.5566250  71.1564130  14.1328430  46.8723030
  58.6102290  10.9465200  49.3206950  57.8836350  10.3270490  49.2532900
  58.6711440  11.3405810  48.4505030  62.2147390  13.1610200  46.1056360
  62.7312410  12.5497560  45.5804620  62.8644770  13.6638980  46.5967370
  64.9542890  14.0518690  46.9325340  65.2420700  13.7972990  46.0558350
  65.4666110  13.4996050  47.5230910  56.8932290  14.2639590  42.5303710
  56.7254330  13.6310270  43.2285600  56.0266800  14.4698990  42.1797900
  58.4994990  12.9572820  39.9753850  57.9742610  13.3380850  39.2715810
  58.4239570  13.5823590  40.6963560  65.0215250  14.9734790  54.2993540
  65.9482560  14.7379060  54.3429500  65.0065680  15.8006790  53.8179570
  73.2560310  14.5160360  41.2967790  73.4312500  13.8298100  40.6528710
  72.5581880  15.0407410  40.9044460  61.0987960  14.9055200  38.8503100
  61.8306780  14.6214480  38.3026990  61.3581630  14.6668480  39.7402480
  60.2602750  11.0219930  38.8549430  59.6311630  11.4905030  39.4035260
  60.3750580  10.1769150  39.2895620  71.5892810  14.2004650  54.1234580
  72.3818130  13.7053880  53.9160540  71.8825960  14.8794790  54.7310190
  67.7152470   5.0725590  25.0050630  67.6346520   4.1580200  24.7342340
  67.3016890   5.5692660  24.2990340  65.8470510   6.8504610  26.8859900
  65.0712610   6.3705050  27.1758470  66.4983440   6.1710260  26.7116060
  59.8636340   7.1624420  27.7635660  59.0321220   6.9073130  28.1632170
  60.4717320   7.2335190  28.4993580  69.8677940  11.2564800  25.6659030
  69.4059470  10.4852040  25.9946200  70.6803490  11.2830870  26.1711480
  59.8437600  11.1964510  27.9593680  60.1465640  10.3062250  27.7803900
  60.5881190  11.7534730  27.7315930  58.2728290   2.1226310  21.5478050
  57.3844990   2.4642280  21.4457930  58.5569480   1.9226630  20.6558880
  56.2361300   4.7231960  27.4317750  56.8077410   3.9554160  27.4321390
  56.2362840   5.0220720  26.5224360  66.0941250  13.5422810  25.2863020
  65.4752690  13.9980310  24.7157460  66.9493030  13.6974270  24.8852720
  65.2879500   9.5261800  26.8930060  65.2187780   8.5851740  26.7319190
  66.0499360   9.6163210  27.4652630  58.0972840   2.6276820  27.8269020
  58.7782950   2.8915190  28.4456420  57.7820890   1.7877690  28.1607030
  62.2897410   3.6744180  26.9141610  62.7975630   4.1725150  27.5546630
  62.8210650   2.8979380  26.7380970  74.3908340   1.8449370  30.6170960
  73.6860510   2.2331080  30.0986070  74.6566260   2.5399660  31.2191890
  66.9604600   8.4262050  22.6794930  66.3421870   8.8911500  22.1157650
  67.4727850   9.1189530  23.0964440  61.8236360   7.9537920  29.3578530
  61.4905740   8.5806840  29.9999600  62.0003040   8.4799800  28.5780200
  70.3370270   1.7683000  26.8254870  69.6325840   2.0567890  27.4057980
  70.6982430   2.5783110  26.4654430  61.0355460   9.9218720  31.1727710
  61.6529460  10.5969800  30.8912160  60.1748580  10.3306700  31.0815210
  56.3287800   9.1118580  20.0534560  55.9515780   9.6005680  19.3219460
  56.5860870   9.7843860  20.6841090  71.9533050  11.3858130  29.0882350
  71.2696570  12.0557240  29.0799020  72.4927340  11.5838780  28.3227210
  69.4891790  13.2302260  27.8027530  69.5018950  12.8264550  26.9349790
  68.9367010  14.0049550  27.6988960  70.7837210   9.9518480  22.8917700
  70.6733540   9.0092810  23.0167120  70.7805460  10.3134120  23.7780460
  68.8877230   8.1332100  29.1310140  69.3046020   7.9192210  28.2963600
  69.6117050   8.3904890  29.7018760  66.3257490   5.5783800  22.2480190
  65.3986770   5.5121180  22.4768660  66.4782310   6.5163930  22.1335430
  66.3126570   1.8500800  19.2447350  65.3730240   2.0114760  19.3299810
  66.6309830   2.5686480  18.6983340  72.8339330   6.5319320  29.2226380
  72.0057960   6.6012410  28.7476510  73.4289810   7.1173630  28.7542210
  70.3554780   7.1404100  22.7515440  69.7367200   6.8023650  22.1041740
  70.3379230   6.4963860  23.4594630  69.7981340   3.3188640  30.1681250
  69.3852520   4.1442350  30.4221240  69.0657290   2.7333680  29.9757610
  61.9314130   6.1048540  25.0299920  61.5271130   5.3925790  24.5345820
  62.0177250   5.7601780  25.9187960  62.3995830   9.7916100  27.1939130
  62.1024120   9.1861570  26.5146910  63.3495650   9.8293410  27.0828490
  60.6442750   2.8791750  28.8098960  61.1957340   2.9887090  28.0352210
  61.1586260   3.2529350  29.5254190  70.4881440  13.3647970  30.8562230
  70.0112000  14.1720160  30.6634840  69.8043230  12.7126300  31.0088440
  61.4914260   9.5297790  33.8446930  60.5942790   9.7537760  34.0920330
  61.5167130   9.6532730  32.8958330  68.5319480   6.3790910  19.7588190
  68.9712760   5.5413340  19.6126010  69.2447900   7.0120310  19.8452330
  60.3185480   6.4011110  32.4204300  60.1793250   7.2733910  32.7891700
  59.4366840   6.0583920  32.2752240  66.6414860  11.3186980  23.7269430
  67.0810770  12.0611310  23.3124820  66.5801750  11.5613550  24.6508390
  62.1165830  12.3432810  34.6289450  62.0881260  12.7475760  33.7617880
  61.9530800  11.4143170  34.4661050  58.6318760   4.9993520  22.5306570
  58.5116360   5.7255610  21.9187840  58.3219650   4.2296430  22.0534480
  74.0680650  13.1259910  35.9253620  74.5440370  13.6042800  36.6042700
  74.6887810  13.0577400  35.1999120  56.2704130   8.1708660  28.3375210
  56.3484550   8.3057430  27.3930930  56.8845810   7.4624550  28.5303330
  57.5151760   9.8708850  24.7481390  57.1079840  10.0123440  23.8934990
  58.4064770   9.5869010  24.5452600  73.4713900  10.3172760  33.0853630
  73.5976960  10.0784640  32.1670810  73.5135280   9.4857300  33.5575710
  67.3330640  14.0200760  31.6548440  67.8475310  13.9308770  32.4570870
  66.4899720  14.3660460  31.9476350  69.3085040  14.3056100  21.0832440
  69.1486180  14.0159040  21.9814270  69.1431750  13.5296230  20.5477670
  61.7873420  14.0854630  22.8604060  61.6115900  13.1690170  22.6471860
  60.9329160  14.4441920  23.1001860  69.0111170  11.8143660  19.6430440
  68.3176330  11.8120950  18.9832720  69.7534030  11.3902980  19.2124610
  68.5761100  13.4406370  23.7178930  69.0318050  12.6595750  24.0317550
  68.9153620  14.1513190  24.2620110  56.3263650   9.2122830  30.8769670
  56.4894690   8.7428190  30.0589040  56.7916100   8.7046390  31.5418510
  70.3856740   2.4306060  32.6462220  69.5350330   2.1311810  32.9671290
  70.2258530   2.6748070  31.7346040  67.4806450   3.9307810  34.7461010
  67.8059860   3.0971560  34.4063240  68.2686780   4.4536330  34.8939340
  60.8896640   3.4662160  23.6411490  60.6637560   3.2499330  24.5458110
  60.1089170   3.8990620  23.2957460  68.1194400   3.4725530  22.2402140
  67.5203290   4.1961330  22.0565760  68.6674010   3.4102310  21.4578590
  63.3295850   4.3647740  34.3071760  63.2339450   3.4242470  34.1572160
  64.1727830   4.5862810  33.9119830  55.9493670   2.6409990  17.7038340
  55.8668340   3.5840750  17.8453330  55.5976730   2.4984900  16.8250690
  67.3114410   4.6994820  28.3656200  66.5795530   5.2081630  28.7146300
  66.9138750   3.8824800  28.0644980  63.8111950   2.3761100  19.7615450
  63.9324770   2.3347580  20.7101270  63.4260460   3.2385250  19.6062180
  62.8233450   4.6862240  19.1598750  62.2550350   4.2380490  18.5334660
  63.5322450   5.0455020  18.6263900  57.9002630   8.5874260  33.0365480
  57.5157420   7.9467930  33.6348440  58.2114820   9.2910380  33.6060210
  64.0499770   5.4350800  28.5174100  64.4169900   4.9609370  29.2635440
  63.8604830   6.3092370  28.8582440  61.8399140   4.4759440  30.8358310
  61.5356210   5.3551420  31.0608670  62.7945600   4.5359230  30.8715750
  60.3680930   8.6820430  21.4325160  59.5943190   8.1418050  21.2723880
  61.0975560   8.1627040  21.0942920  71.1268910   7.6785790  27.2251550
  71.8468030   8.1741080  26.8347660  70.9250730   7.0003680  26.5805420
  66.5087710   7.7494850  33.1120550  66.4425020   6.8290520  32.8578140
  65.8792850   7.8470290  33.8265190  69.3027240   3.4443400  19.6643100
  70.1906860   3.7560630  19.4894440  69.2732330   2.5715650  19.2723680
  60.4118330   8.3500810  25.0703970  60.9297000   7.5469070  25.0160860
  59.9602350   8.2879950  25.9120800  65.2987830   9.6167090  20.3431270
  65.6403530  10.3609320  19.8474590  64.4700540   9.9298210  20.7056100
  57.8962870   5.3162180  31.9829670  57.5377810   5.9816030  32.5703010
  57.6017430   4.4845730  32.3542290  61.0975990   5.7746420  34.8669220
  60.7976130   5.9203600  33.9697040  61.8687230   5.2151710  34.7742610
  66.4404440  10.5715420  32.8624350  66.4548980   9.6396380  32.6443260
  65.7329540  10.6575180  33.5014120  71.5741510   4.7555240  19.1322960
  71.4905230   5.1869460  18.2819400  72.2935700   5.2153590  19.5649780
  72.6515650   7.2122760  32.2092930  71.9263840   7.8051540  32.0122320
  73.1791110   7.2046300  31.4106300  72.6028760  11.6097500  21.8605090
  71.9604920  10.9553120  22.1348810  72.2159420  12.0152590  21.0845760
  68.1815240   8.9382930  25.7076780  68.5339060   8.3411060  25.0478150
  67.2977570   8.6127160  25.8785030  64.2678520   9.6980620  23.1147190
  64.9549650  10.2449830  23.4954780  63.4810940  10.2421350  23.1496800
  56.4070920   5.3153440  18.6064270  57.2765770   5.5978240  18.8900190
  55.9161240   6.1289310  18.4913080  63.5705730   6.7026650  22.7272550
  64.0268510   7.5131900  22.9532740  63.2193940   6.3849790  23.5591040
  65.8738340  12.2132990  29.9564850  66.5180560  12.4192370  30.6338270
  66.2367780  11.4521390  29.5035700  67.1470420  10.2165340  28.6742300
  67.7892650   9.5158500  28.7874470  67.6719770  10.9963780  28.4939190
  70.9926140  10.5013960  18.3981440  70.7663720   9.7844400  18.9906080
  70.6022340  10.2526400  17.5603190  68.9208040  11.0160240  31.8778360
  69.2564280  11.6026930  32.5556280  68.0008380  10.8852950  32.1076150
  56.7742170  14.5280820  19.1725900  57.1339810  15.1270160  18.5183170
  56.6334510  15.0740710  19.9460930  70.5742390   8.4185900  20.0595600
  70.2864090   8.8798590  20.8473480  71.3694560   7.9583670  20.3279820
  56.7584030  12.7935680  33.6468300  56.8675150  11.8530420  33.5063690
  56.1064590  13.0590430  32.9982030  64.7496620  11.0651570  35.0466420
  64.4293490  10.3460810  35.5912110  64.0754980  11.7406640  35.1202480
  62.7910790  11.9112020  19.9899570  62.7820890  12.6441710  19.3744080
  61.8709150  11.6643600  20.0826530  58.3917430   7.1326910  20.7346330
  57.7845380   7.8725810  20.7441630  58.8666780   7.2226270  19.9084530
  65.7770390  11.9740260  18.6524760  65.8782370  11.7704250  17.7226740
  64.8772130  11.7198540  18.8572540  63.2996280   2.5320620  22.6348660
  62.5912430   3.0006960  23.0762270  63.5840760   1.8742630  23.2693850
  64.9252210   3.9517320  30.6341190  65.4237460   4.4263140  31.2993040
  65.0675160   3.0280840  30.8411220  64.4188500  14.4926580  23.3472430
  64.6730000  14.4547970  22.4251800  63.4700980  14.3659910  23.3400680
  70.4241080   5.4118460  24.9230940  69.4831220   5.4268690  25.0978630
  70.7385150   4.6254420  25.3691240  60.4022720   7.0938060  18.4834900
  61.1685990   6.9819420  19.0460330  60.4797410   6.3976030  17.8311670
  59.0969480   4.5263130  19.1667790  59.1773070   3.5790640  19.2785190
  59.9889230   4.8570010  19.2728450  72.4266660  12.5827310  26.5985200
  72.5514080  13.4058480  27.0709010  73.2932220  12.3718040  26.2509350
  59.8984190  14.6758520  26.2702330  60.6346670  14.1273980  26.5410900
  60.2825110  15.5414530  26.1308320  56.7829670  10.7432090  22.1443840
  55.8569450  10.9853230  22.1349250  57.2486100  11.5706350  22.0228590
  58.9042470  13.8604590  35.4587910  59.7055200  14.1816640  35.8723310
  58.3894290  13.5000170  36.1807820  63.0086500  13.8488830  18.0927900
  63.8015110  14.1377660  17.6409690  62.4890850  13.4181000  17.4140380
  67.7407100   9.9684460  35.4063320  67.1345260   9.9916060  34.6659070
  67.4361210   9.2367500  35.9430570  69.1707470  13.6964750  34.0172730
  70.1229220  13.6122770  33.9672970  69.0235690  14.3606460  34.6906520
  72.0616670  13.0758960  19.5164640  71.7758180  12.6624100  18.7018820
  71.8636220  14.0046670  19.3965160  56.6240280   6.3478050  34.4023960
  57.1279300   5.7685330  34.9740190  55.8847700   6.6318280  34.9400330
  63.5263900   9.0692240  17.9570250  63.4214540   8.4544590  18.6831630
  63.3588120   8.5458130  17.1733260  63.6778220   7.7549040  33.9359480
  62.9123890   8.3234040  33.8514150  63.8594180   7.4625250  33.0427710
  66.7666630   8.1312270  18.5612240  66.2176730   8.5781570  19.2054980
  67.3885890   7.6261520  19.0849910  70.8201570   9.4854370  34.4934500
  71.5611040   9.8230130  33.9901960  70.0574250   9.6546430  33.9404270
  58.6563360   4.4907640  35.2974030  58.6968700   4.1921510  36.2059260
  59.5108860   4.8915250  35.1381550  62.4341750   7.0903190  20.4577540
  62.8558170   6.9243060  21.3008930  62.5592590   6.2803420  19.9632680
  60.5969170   3.0699740  33.2648520  60.0665630   2.5790690  32.6371860
  61.2657240   3.4983940  32.7306450  64.9469390   6.1140800  17.7054640
  65.4675050   5.3989820  17.3395790  65.5937790   6.7526670  18.0055150
  69.4947230   7.5369200  33.0289710  69.9088250   7.6914280  33.8780130
  68.5598230   7.6624420  33.1915490  69.9669400   4.8765360  35.0328860
  70.5490170   4.1217680  34.9449340  70.1431170   5.4072800  34.2560340
  64.2562460   7.4889680  30.9985640  64.6750570   8.3322410  30.8261880
  63.3371090   7.6261720  30.7692420  66.5926360   5.2205860  32.3823480
  66.7122570   4.6247000  33.1218320  67.4520360   5.2575550  31.9624780
  68.9314260   5.7743050  30.9585990  68.4049480   6.2985670  30.3551130
  69.2745600   6.4070440  31.5895720  61.3300650   3.1636420  17.4035700
  61.1289710   2.3003780  17.7649040  61.1592700   3.0769780  16.4657300
  62.1069880  13.7942690  32.1143370  61.5690970  14.5188750  31.7952070
  62.3603840  13.3173030  31.3240710  64.9632090  15.0293900  32.3730020
  64.8890790  15.9329040  32.6802390  64.0610930  14.7105800  32.3452090
  65.5117420  14.1952410  19.9956380  66.4068210  14.5337380  20.0175140
  65.5435050  13.4731820  19.3680660  59.1513580   9.5679460  18.2243380
  59.5888450  10.1109130  18.8800960  59.6361310   8.7426410  18.2339720
  56.3659380  12.3568490  25.6763640  56.6962390  11.4889550  25.4442280
  56.7950380  12.5627010  26.5068600  60.9621300  10.6877500  23.3365610
  60.6616840  10.5642470  24.2369520  60.8558790   9.8286090  22.9281340
  56.8549590  13.2239080  28.4145270  56.4180580  13.4039880  29.2469420
  57.4227270  13.9813700  28.2726990  72.4911770  12.7256080  32.7022580
  71.8913760  12.7848640  31.9586500  72.6205670  11.7861060  32.8319430
  73.7313220  10.4673900  18.0392290  72.9006180  10.5350550  18.5099520
  73.9085050  11.3578020  17.7359150  73.1869680   7.2121380  20.5426490
  73.9488590   7.7818030  20.6486180  73.2024050   6.6448580  21.3134800
  56.6874020   5.7359310  24.7734150  56.0322860   5.4670950  24.1293850
  57.5251970   5.6263790  24.3236130  74.1929650   8.0671480  25.3868420
  74.5638480   7.2838800  24.9804390  74.8331580   8.7560580  25.2085720
  71.1763410   9.4508060  30.7998740  70.3623250   9.8805220  31.0624530
  71.5837610  10.0626470  30.1867790  73.2388850   7.5055750  17.6999010
  73.5137690   8.4134630  17.5718230  73.0499590   7.4418280  18.6361000
  73.1354190   5.4424740  22.6928440  72.7597790   4.6752670  22.2609730
  72.4057310   5.8247440  23.1803370  57.7249950   6.1211880  29.3137490
  58.0922990   6.0339280  30.1933510  57.1560770   5.3578430  29.2144350
  72.5253810   4.5896260  32.3267960  72.2939900   4.3609010  31.4265910
  72.7858360   5.5095810  32.2812850  57.2765950   3.0320970  33.2195910
  56.3822000   2.9987730  33.5589620  57.8163500   3.2307760  33.9847160
  55.9012100   2.9458240  20.7159480  54.9976180   3.2088440  20.5411140
  56.3852720   3.2169410  19.9359440  72.4105150   3.6682230  25.9935680
  72.9342630   3.1744880  25.3625850  72.9964570   3.8032590  26.7383250
  72.5894870   3.7522100  29.5155230  71.6397580   3.7185640  29.6300220
  72.7707880   4.6622210  29.2805000  71.9005120   2.9255580  21.9328090
  72.3964240   2.6926450  22.7176970  71.7021190   2.0867420  21.5165730
  71.2339460  14.2026660  24.3267010  71.8298530  13.8811230  23.6501430
  71.4917610  13.7298480  25.1180280  59.1402030  10.6344570  34.4757640
  59.0971660  10.2637480  35.3572100  59.2713040  11.5722140  34.6159460
  62.8408060  12.1904160  30.0767360  62.5999420  12.4578720  29.1897880
  63.7810700  12.3609890  30.1318220  74.1012220  14.2098540  30.8778000
  73.6070500  14.6067410  30.1605130  73.4925510  13.5847750  31.2715280
  58.9790060  13.5806820  31.5955420  58.3850380  13.4491520  32.3345460
  58.9713900  12.7444960  31.1297520  71.7851670  14.8521960  28.1564740
  71.3254640  15.6037770  27.7822760  71.1564130  14.1328430  28.0979540
  58.6102290  10.9465200  30.5463460  57.8836350  10.3270490  30.4789410
  58.6711440  11.3405810  29.6761540  62.2147390  13.1610200  27.3312870
  62.7312410  12.5497560  26.8061130  62.8644770  13.6638980  27.8223880
  64.9542890  14.0518690  28.1581850  65.2420700  13.7972990  27.2814860
  65.4666110  13.4996050  28.7487420  56.8932290  14.2639590  23.7560220
  56.7254330  13.6310270  24.4542110  56.0266800  14.4698990  23.4054410
  58.4994990  12.9572820  21.2010360  57.9742610  13.3380850  20.4972320
  58.4239570  13.5823590  21.9220070  65.0215250  14.9734790  35.5250050
  65.9482560  14.7379060  35.5686010  65.0065680  15.8006790  35.0436080
  73.2560310  14.5160360  22.5224300  73.4312500  13.8298100  21.8785220
  72.5581880  15.0407410  22.1300970  61.0987960  14.9055200  20.0759610
  61.8306780  14.6214480  19.5283500  61.3581630  14.6668480  20.9658990
  60.2602750  11.0219930  20.0805940  59.6311630  11.4905030  20.6291770
  60.3750580  10.1769150  20.5152130  71.5892810  14.2004650  35.3491090
  72.3818130  13.7053880  35.1417050  71.8825960  14.8794790  35.9566700
  67.7152470   5.0725590   6.2307140  67.6346520   4.1580200   5.9598850
  67.3016890   5.5692660   5.5246850  65.8470510   6.8504610   8.1116410
  65.0712610   6.3705050   8.4014980  66.4983440   6.1710260   7.9372570
  59.8636340   7.1624420   8.9892170  59.0321220   6.9073130   9.3888680
  60.4717320   7.2335190   9.7250090  69.8677940  11.2564800   6.8915540
  69.4059470  10.4852040   7.2202710  70.6803490  11.2830870   7.3967990
  59.8437600  11.1964510   9.1850190  60.1465640  10.3062250   9.0060410
  60.5881190  11.7534730   8.9572440  58.2728290   2.1226310   2.7734560
  57.3844990   2.4642280   2.6714440  58.5569480   1.9226630   1.8815390
  56.2361300   4.7231960   8.6574260  56.8077410   3.9554160   8.6577900
  56.2362840   5.0220720   7.7480870  66.0941250  13.5422810   6.5119530
  65.4752690  13.9980310   5.9413970  66.9493030  13.6974270   6.1109230
  65.2879500   9.5261800   8.1186570  65.2187780   8.5851740   7.9575700
  66.0499360   9.6163210   8.6909140  58.0972840   2.6276820   9.0525530
  58.7782950   2.8915190   9.6712930  57.7820890   1.7877690   9.3863540
  62.2897410   3.6744180   8.1398120  62.7975630   4.1725150   8.7803140
  62.8210650   2.8979380   7.9637480  74.3908340   1.8449370  11.8427470
  73.6860510   2.2331080  11.3242580  74.6566260   2.5399660  12.4448400
  66.9604600   8.4262050   3.9051440  66.3421870   8.8911500   3.3414160
  67.4727850   9.1189530   4.3220950  61.8236360   7.9537920  10.5835040
  61.4905740   8.5806840  11.2256110  62.0003040   8.4799800   9.8036710
  70.3370270   1.7683000   8.0511380  69.6325840   2.0567890   8.6314490
  70.6982430   2.5783110   7.6910940  61.0355460   9.9218720  12.3984220
  61.6529460  10.5969800  12.1168670  60.1748580  10.3306700  12.3071720
  71.9533050  11.3858130  10.3138860  71.2696570  12.0557240  10.3055530
  72.4927340  11.5838780   9.5483720  69.4891790  13.2302260   9.0284040
  69.5018950  12.8264550   8.1606300  68.9367010  14.0049550   8.9245470
  70.7837210   9.9518480   4.1174210  70.6733540   9.0092810   4.2423630
  70.7805460  10.3134120   5.0036970  68.8877230   8.1332100  10.3566650
  69.3046020   7.9192210   9.5220110  69.6117050   8.3904890  10.9275270
  66.3257490   5.5783800   3.4736700  65.3986770   5.5121180   3.7025170
  66.4782310   6.5163930   3.3591940  72.8339330   6.5319320  10.4482890
  72.0057960   6.6012410   9.9733020  73.4289810   7.1173630   9.9798720
  70.3554780   7.1404100   3.9771950  69.7367200   6.8023650   3.3298250
  70.3379230   6.4963860   4.6851140  69.7981340   3.3188640  11.3937760
  69.3852520   4.1442350  11.6477750  69.0657290   2.7333680  11.2014120
  61.9314130   6.1048540   6.2556430  61.5271130   5.3925790   5.7602330
  62.0177250   5.7601780   7.1444470  62.3995830   9.7916100   8.4195640
  62.1024120   9.1861570   7.7403420  63.3495650   9.8293410   8.3085000
  60.6442750   2.8791750  10.0355470  61.1957340   2.9887090   9.2608720
  61.1586260   3.2529350  10.7510700  70.4881440  13.3647970  12.0818740
  70.0112000  14.1720160  11.8891350  69.8043230  12.7126300  12.2344950
  61.4914260   9.5297790  15.0703440  60.5942790   9.7537760  15.3176840
  61.5167130   9.6532730  14.1214840  60.3185480   6.4011110  13.6460810
  60.1793250   7.2733910  14.0148210  59.4366840   6.0583920  13.5008750
  66.6414860  11.3186980   4.9525940  67.0810770  12.0611310   4.5381330
  66.5801750  11.5613550   5.8764900  62.1165830  12.3432810  15.8545960
  62.0881260  12.7475760  14.9874390  61.9530800  11.4143170  15.6917560
  58.6318760   4.9993520   3.7563080  58.5116360   5.7255610   3.1444350
  58.3219650   4.2296430   3.2790990  74.0680650  13.1259910  17.1510130
  74.5440370  13.6042800  17.8299210  74.6887810  13.0577400  16.4255630
  56.2704130   8.1708660   9.5631720  56.3484550   8.3057430   8.6187440
  56.8845810   7.4624550   9.7559840  57.5151760   9.8708850   5.9737900
  57.1079840  10.0123440   5.1191500  58.4064770   9.5869010   5.7709110
  73.4713900  10.3172760  14.3110140  73.5976960  10.0784640  13.3927320
  73.5135280   9.4857300  14.7832220  67.3330640  14.0200760  12.8804950
  67.8475310  13.9308770  13.6827380  66.4899720  14.3660460  13.1732860
  69.3085040  14.3056100   2.3088950  69.1486180  14.0159040   3.2070780
  69.1431750  13.5296230   1.7734180  61.7873420  14.0854630   4.0860570
  61.6115900  13.1690170   3.8728370  60.9329160  14.4441920   4.3258370
  68.5761100  13.4406370   4.9435440  69.0318050  12.6595750   5.2574060
  68.9153620  14.1513190   5.4876620  56.3263650   9.2122830  12.1026180
  56.4894690   8.7428190  11.2845550  56.7916100   8.7046390  12.7675020
  70.3856740   2.4306060  13.8718730  69.5350330   2.1311810  14.1927800
  70.2258530   2.6748070  12.9602550  67.4806450   3.9307810  15.9717520
  67.8059860   3.0971560  15.6319750  68.2686780   4.4536330  16.1195850
  60.8896640   3.4662160   4.8668000  60.6637560   3.2499330   5.7714620
  60.1089170   3.8990620   4.5213970  68.1194400   3.4725530   3.4658650
  67.5203290   4.1961330   3.2822270  68.6674010   3.4102310   2.6835100
  63.3295850   4.3647740  15.5328270  63.2339450   3.4242470  15.3828670
  64.1727830   4.5862810  15.1376340  67.3114410   4.6994820   9.5912710
  66.5795530   5.2081630   9.9402810  66.9138750   3.8824800   9.2901490
  57.9002630   8.5874260  14.2621990  57.5157420   7.9467930  14.8604950
  58.2114820   9.2910380  14.8316720  64.0499770   5.4350800   9.7430610
  64.4169900   4.9609370  10.4891950  63.8604830   6.3092370  10.0838950
  61.8399140   4.4759440  12.0614820  61.5356210   5.3551420  12.2865180
  62.7945600   4.5359230  12.0972260  60.3680930   8.6820430   2.6581670
  59.5943190   8.1418050   2.4980390  61.0975560   8.1627040   2.3199430
  71.1268910   7.6785790   8.4508060  71.8468030   8.1741080   8.0604170
  70.9250730   7.0003680   7.8061930  66.5087710   7.7494850  14.3377060
  66.4425020   6.8290520  14.0834650  65.8792850   7.8470290  15.0521700
  60.4118330   8.3500810   6.2960480  60.9297000   7.5469070   6.2417370
  59.9602350   8.2879950   7.1377310  57.8962870   5.3162180  13.2086180
  57.5377810   5.9816030  13.7959520  57.6017430   4.4845730  13.5798800
  61.0975990   5.7746420  16.0925730  60.7976130   5.9203600  15.1953550
  61.8687230   5.2151710  15.9999120  66.4404440  10.5715420  14.0880860
  66.4548980   9.6396380  13.8699770  65.7329540  10.6575180  14.7270630
  72.6515650   7.2122760  13.4349440  71.9263840   7.8051540  13.2378830
  73.1791110   7.2046300  12.6362810  72.6028760  11.6097500   3.0861600
  71.9604920  10.9553120   3.3605320  72.2159420  12.0152590   2.3102270
  68.1815240   8.9382930   6.9333290  68.5339060   8.3411060   6.2734660
  67.2977570   8.6127160   7.1041540  64.2678520   9.6980620   4.3403700
  64.9549650  10.2449830   4.7211290  63.4810940  10.2421350   4.3753310
  63.5705730   6.7026650   3.9529060  64.0268510   7.5131900   4.1789250
  63.2193940   6.3849790   4.7847550  65.8738340  12.2132990  11.1821360
  66.5180560  12.4192370  11.8594780  66.2367780  11.4521390  10.7292210
  67.1470420  10.2165340   9.8998810  67.7892650   9.5158500  10.0130980
  67.6719770  10.9963780   9.7195700  68.9208040  11.0160240  13.1034870
  69.2564280  11.6026930  13.7812790  68.0008380  10.8852950  13.3332660
  56.7584030  12.7935680  14.8724810  56.8675150  11.8530420  14.7320200
  56.1064590  13.0590430  14.2238540  64.7496620  11.0651570  16.2722930
  64.4293490  10.3460810  16.8168620  64.0754980  11.7406640  16.3458990
  63.2996280   2.5320620   3.8605170  62.5912430   3.0006960   4.3018780
  63.5840760   1.8742630   4.4950360  64.9252210   3.9517320  11.8597700
  65.4237460   4.4263140  12.5249550  65.0675160   3.0280840  12.0667730
  64.4188500  14.4926580   4.5728940  64.6730000  14.4547970   3.6508310
  63.4700980  14.3659910   4.5657190  70.4241080   5.4118460   6.1487450
  69.4831220   5.4268690   6.3235140  70.7385150   4.6254420   6.5947750
  72.4266660  12.5827310   7.8241710  72.5514080  13.4058480   8.2965520
  73.2932220  12.3718040   7.4765860  59.8984190  14.6758520   7.4958840
  60.6346670  14.1273980   7.7667410  60.2825110  15.5414530   7.3564830
  56.7829670  10.7432090   3.3700350  55.8569450  10.9853230   3.3605760
  57.2486100  11.5706350   3.2485100  58.9042470  13.8604590  16.6844420
  59.7055200  14.1816640  17.0979820  58.3894290  13.5000170  17.4064330
  67.7407100   9.9684460  16.6319830  67.1345260   9.9916060  15.8915580
  67.4361210   9.2367500  17.1687080  69.1707470  13.6964750  15.2429240
  70.1229220  13.6122770  15.1929480  69.0235690  14.3606460  15.9163030
  56.6240280   6.3478050  15.6280470  57.1279300   5.7685330  16.1996700
  55.8847700   6.6318280  16.1656840  63.6778220   7.7549040  15.1615990
  62.9123890   8.3234040  15.0770660  63.8594180   7.4625250  14.2684220
  70.8201570   9.4854370  15.7191010  71.5611040   9.8230130  15.2158470
  70.0574250   9.6546430  15.1660780  58.6563360   4.4907640  16.5230540
  58.6968700   4.1921510  17.4315770  59.5108860   4.8915250  16.3638060
  60.5969170   3.0699740  14.4905030  60.0665630   2.5790690  13.8628370
  61.2657240   3.4983940  13.9562960  69.4947230   7.5369200  14.2546220
  69.9088250   7.6914280  15.1036640  68.5598230   7.6624420  14.4172000
  69.9669400   4.8765360  16.2585370  70.5490170   4.1217680  16.1705850
  70.1431170   5.4072800  15.4816850  64.2562460   7.4889680  12.2242150
  64.6750570   8.3322410  12.0518390  63.3371090   7.6261720  11.9948930
  66.5926360   5.2205860  13.6079990  66.7122570   4.6247000  14.3474830
  67.4520360   5.2575550  13.1881290  68.9314260   5.7743050  12.1842500
  68.4049480   6.2985670  11.5807640  69.2745600   6.4070440  12.8152230
  62.1069880  13.7942690  13.3399880  61.5690970  14.5188750  13.0208580
  62.3603840  13.3173030  12.5497220  64.9632090  15.0293900  13.5986530
  64.8890790  15.9329040  13.9058900  64.0610930  14.7105800  13.5708600
  56.3659380  12.3568490   6.9020150  56.6962390  11.4889550   6.6698790
  56.7950380  12.5627010   7.7325110  60.9621300  10.6877500   4.5622120
  60.6616840  10.5642470   5.4626030  60.8558790   9.8286090   4.1537850
  56.8549590  13.2239080   9.6401780  56.4180580  13.4039880  10.4725930
  57.4227270  13.9813700   9.4983500  72.4911770  12.7256080  13.9279090
  71.8913760  12.7848640  13.1843010  72.6205670  11.7861060  14.0575940
  73.1869680   7.2121380   1.7683000  73.9488590   7.7818030   1.8742690
  73.2024050   6.6448580   2.5391310  56.6874020   5.7359310   5.9990660
  56.0322860   5.4670950   5.3550360  57.5251970   5.6263790   5.5492640
  74.1929650   8.0671480   6.6124930  74.5638480   7.2838800   6.2060900
  74.8331580   8.7560580   6.4342230  71.1763410   9.4508060  12.0255250
  70.3623250   9.8805220  12.2881040  71.5837610  10.0626470  11.4124300
  73.1354190   5.4424740   3.9184950  72.7597790   4.6752670   3.4866240
  72.4057310   5.8247440   4.4059880  57.7249950   6.1211880  10.5394000
  58.0922990   6.0339280  11.4190020  57.1560770   5.3578430  10.4400860
  72.5253810   4.5896260  13.5524470  72.2939900   4.3609010  12.6522420
  72.7858360   5.5095810  13.5069360  57.2765950   3.0320970  14.4452420
  56.3822000   2.9987730  14.7846130  57.8163500   3.2307760  15.2103670
  72.4105150   3.6682230   7.2192190  72.9342630   3.1744880   6.5882360
  72.9964570   3.8032590   7.9639760  72.5894870   3.7522100  10.7411740
  71.6397580   3.7185640  10.8556730  72.7707880   4.6622210  10.5061510
  71.9005120   2.9255580   3.1584600  72.3964240   2.6926450   3.9433480
  71.7021190   2.0867420   2.7422240  71.2339460  14.2026660   5.5523520
  71.8298530  13.8811230   4.8757940  71.4917610  13.7298480   6.3436790
  59.1402030  10.6344570  15.7014150  59.0971660  10.2637480  16.5828610
  59.2713040  11.5722140  15.8415970  62.8408060  12.1904160  11.3023870
  62.5999420  12.4578720  10.4154390  63.7810700  12.3609890  11.3574730
  74.1012220  14.2098540  12.1034510  73.6070500  14.6067410  11.3861640
  73.4925510  13.5847750  12.4971790  58.9790060  13.5806820  12.8211930
  58.3850380  13.4491520  13.5601970  58.9713900  12.7444960  12.3554030
  71.7851670  14.8521960   9.3821250  71.3254640  15.6037770   9.0079270
  71.1564130  14.1328430   9.3236050  58.6102290  10.9465200  11.7719970
  57.8836350  10.3270490  11.7045920  58.6711440  11.3405810  10.9018050
  62.2147390  13.1610200   8.5569380  62.7312410  12.5497560   8.0317640
  62.8644770  13.6638980   9.0480390  64.9542890  14.0518690   9.3838360
  65.2420700  13.7972990   8.5071370  65.4666110  13.4996050   9.9743930
  56.8932290  14.2639590   4.9816730  56.7254330  13.6310270   5.6798620
  56.0266800  14.4698990   4.6310920  58.4994990  12.9572820   2.4266870
  57.9742610  13.3380850   1.7228830  58.4239570  13.5823590   3.1476580
  65.0215250  14.9734790  16.7506560  65.9482560  14.7379060  16.7942520
  65.0065680  15.8006790  16.2692590  73.2560310  14.5160360   3.7480810
  73.4312500  13.8298100   3.1041730  72.5581880  15.0407410   3.3557480
  71.5892810  14.2004650  16.5747600  72.3818130  13.7053880  16.3673560
  71.8825960  14.8794790  17.1823210  48.9408980  80.1699550  81.3281100
  48.8603030  79.2554160  81.0572810  48.5273400  80.6666620  80.6220810
  47.0727020  81.9478570  83.2090370  46.2969120  81.4679010  83.4988940
  47.7239950  81.2684220  83.0346530  41.0892850  82.2598380  84.0866130
  40.2577730  82.0047090  84.4862640  41.6973830  82.3309150  84.8224050
  39.4984800  77.2200270  77.8708520  38.6101500  77.5616240  77.7688400
  39.7825990  77.0200590  76.9789350  37.4617810  79.8205920  83.7548220
  38.0333920  79.0528120  83.7551860  37.4619350  80.1194680  82.8454830
  46.5136010  84.6235760  83.2160530  46.4444290  83.6825700  83.0549660
  47.2755870  84.7137170  83.7883100  38.7042680  75.2290280  85.5417150
  38.5245520  74.3316030  85.8219910  38.3022760  75.7762150  86.2164100
  47.5441180  77.4306140  83.4429460  47.9206000  76.5578020  83.3303130
  47.4460690  77.7664840  82.5519900  41.6746190  75.8031770  78.9046900
  41.7812940  76.7035500  79.2115660  40.7638550  75.7549740  78.6141550
  51.3265300  74.9256580  80.3757800  52.1474920  74.4353150  80.4183280
  51.3599380  75.5154240  81.1289640  39.3229350  77.7250780  84.1499490
  40.0039460  77.9889150  84.7686890  39.0077400  76.8851650  84.4837500
  43.5153920  78.7718140  83.2372080  44.0232140  79.2699110  83.8777100
  44.0467160  77.9953340  83.0611440  55.6164850  76.9423330  86.9401430
  54.9117020  77.3305040  86.4216540  55.8822770  77.6373620  87.5422360
  41.7990020  73.4116700  87.5035500  41.8008460  73.9289090  86.6981400
  40.9694330  72.9346880  87.4805430  48.1861110  83.5236010  79.0025400
  47.5678380  83.9885460  78.4388120  48.6984360  84.2163490  79.4194910
  43.0492870  83.0511880  85.6809000  42.7162250  83.6780800  86.3230070
  43.2259550  83.5773760  84.9010670  51.5626780  76.8656960  83.1485340
  50.8582350  77.1541850  83.7288450  51.9238940  77.6757070  82.7884900
  41.4805350  75.1226660  85.5105950  41.8222160  75.9668710  85.2159820
  40.5421160  75.2710400  85.6271290  37.5544310  84.2092540  76.3765030
  37.1772290  84.6979640  75.6449930  37.8117380  84.8817820  77.0071560
  54.6313700  76.3111750  83.5394550  53.6838610  76.3450730  83.6709980
  54.9563690  77.1250700  83.9243910  45.1633240  72.6108930  81.8350540
  45.4708220  72.0555820  81.1186040  44.2333940  72.7453390  81.6523530
  50.1133740  83.2306060  85.4540610  50.5302530  83.0166170  84.6194070
  50.8373560  83.4878850  86.0249230  47.5514000  80.6757760  78.5710660
  46.6243280  80.6095140  78.7999130  47.7038820  81.6137890  78.4565900
  47.5383080  76.9474760  75.5677820  46.5986750  77.1088720  75.6530280
  47.8566340  77.6660440  75.0213810  54.0595840  81.6293280  85.5456850
  53.2314470  81.6986370  85.0706980  54.6546320  82.2147590  85.0772680
  51.5811290  82.2378060  79.0745910  50.9623710  81.8997610  78.4272210
  51.5635740  81.5937820  79.7825100  51.0237850  78.4162600  86.4911720
  50.6109030  79.2416310  86.7451710  50.2913800  77.8307640  86.2988080
  43.1570640  81.2022500  81.3530390  42.7527640  80.4899750  80.8576290
  43.2433760  80.8575740  82.2418430  43.6252340  84.8890060  83.5169600
  43.3280630  84.2835530  82.8377380  44.5752160  84.9267370  83.4058960
  41.8699260  77.9765710  85.1329430  42.4213850  78.0861050  84.3582680
  42.3842770  78.3503310  85.8484660  49.7575990  81.4764870  76.0818660
  50.1969270  80.6387300  75.9356480  50.4704410  82.1094270  76.1682800
  41.5441990  81.4985070  88.7434770  41.4049760  82.3707870  89.1122170
  40.6623350  81.1557880  88.5982710  53.3393130  72.7307680  74.3959700
  53.0265790  72.8234510  75.2958770  54.1005600  73.3088710  74.3457130
  39.8575270  80.0967480  78.8537040  39.7372870  80.8229570  78.2418310
  39.5476160  79.3270390  78.3764950  37.4960640  83.2682620  84.6605680
  37.5741060  83.4031390  83.7161400  38.1102320  82.5598510  84.8533800
  37.5520160  84.3096790  87.2000140  37.7151200  83.8402150  86.3819510
  38.0172610  83.8020350  87.8648980  42.3238930  73.4402550  82.2360710
  41.8807080  74.2212090  81.9045230  42.8823920  73.7632440  82.9431650
  46.6108740  76.3071070  87.8396030  46.1488110  76.5154090  88.6515970
  46.2086850  75.4930420  87.5366700  45.4397750  73.0613250  77.1166540
  44.8151930  73.0573120  77.8419850  45.3527870  72.1944210  76.7202510
  44.3614830  73.9849880  84.0950310  44.6587160  74.8912710  84.0142330
  44.9100390  73.4968660  83.4809880  42.1153150  78.5636120  79.9641960
  41.8894070  78.3473290  80.8688580  41.3345680  78.9964580  79.6187930
  49.3450910  78.5699490  78.5632610  48.7459800  79.2935290  78.3796230
  49.8930520  78.5076270  77.7809060  47.9515780  77.2063030  80.5935890
  48.3445350  77.5235230  79.7804580  48.3132630  76.3274910  80.7080410
  39.6862900  75.8735370  88.7836010  39.2926290  76.7210580  88.9908790
  38.9981300  75.2361740  88.9744650  36.9879950  73.7963830  82.8166090
  36.6993000  74.3666690  83.5291070  37.7325710  73.3168280  83.1797320
  37.1750180  77.7383950  74.0268810  37.0924850  78.6814710  74.1683800
  36.8233240  77.5958860  73.1481160  48.5370920  79.7968780  84.6886670
  47.8052040  80.3055590  85.0376770  48.1395260  78.9798760  84.3875450
  44.9748310  76.4722980  83.0939160  44.9784370  76.0312930  82.2443700
  45.8699430  76.7940310  83.2010980  40.8250690  76.3549470  82.0533370
  40.4850740  76.8324700  82.8100420  40.0628010  75.9014590  81.6934470
  45.0368460  77.4735060  76.0845920  45.1581280  77.4321540  77.0331740
  44.6516970  78.3359210  75.9292650  48.9996830  75.2502460  84.1009610
  49.0169570  75.7011110  84.9451460  48.7512410  74.3508100  84.3143050
  44.0489960  79.7836200  75.4829220  43.4806860  79.3354450  74.8565130
  44.7578960  80.1428980  74.9494370  45.2756280  80.5324760  84.8404570
  45.6426410  80.0583330  85.5865910  45.0861340  81.4066330  85.1812910
  38.1396770  75.2768450  80.9698040  37.8543690  74.9124120  81.8076660
  38.0775630  74.5448910  80.3561180  43.0655650  79.5733400  87.1588780
  42.7612720  80.4525380  87.3839140  44.0202110  79.6333190  87.1946220
  41.5937440  83.7794390  77.7555630  40.8199700  83.2392010  77.5954350
  42.3232070  83.2601000  77.4173390  52.3525420  82.7759750  83.5482020
  53.0724540  83.2715040  83.1578130  52.1507240  82.0977640  82.9035890
  47.8135360  74.1697710  77.6911410  46.9999970  73.6710880  77.6156720
  47.6197310  75.0095960  77.2747760  50.5283750  78.5417360  75.9873570
  51.4163370  78.8534590  75.8124910  50.4988840  77.6689610  75.5954150
  41.6374840  83.4474770  81.3934440  42.1553510  82.6443030  81.3391330
  41.1858860  83.3853910  82.2351270  39.1219380  80.4136140  88.3060140
  38.7634320  81.0789990  88.8933480  38.8273940  79.5819690  88.6772760
  52.7998020  79.8529200  75.4553430  52.7161740  80.2843420  74.6049870
  53.5192210  80.3127550  75.8880250  53.8772160  82.3096720  88.5323400
  53.1520350  82.9025500  88.3352790  54.4047620  82.3020260  87.7336770
  49.4071750  84.0356890  82.0307250  49.7595570  83.4385020  81.3708620
  48.5234080  83.7101120  82.2015500  37.6327430  80.4127400  74.9294740
  38.5022280  80.6952200  75.2130660  37.1417750  81.2263270  74.8143550
  44.7962240  81.8000610  79.0503020  45.2525020  82.6105860  79.2763210
  44.4450450  81.4823750  79.8821510  40.6974020  72.1438260  79.5225540
  40.5688650  72.1356160  80.4710460  39.8736040  72.4821350  79.1716550
  51.7998900  83.5159860  76.3826070  51.5120600  83.9772550  77.1703950
  52.5951070  83.0557630  76.6510290  39.6173940  82.2300870  77.0576800
  39.0101890  82.9699770  77.0672100  40.0923290  82.3200230  76.2315000
  49.1906730  76.3951690  86.7333690  49.5587550  75.5746900  87.0613260
  48.3304930  76.4553580  87.1489340  52.5568760  75.3508630  77.5421250
  51.9281920  75.4554300  76.8279480  52.0620680  75.5705410  78.3315130
  44.5252790  77.6294580  78.9579130  43.8168940  78.0980920  79.3992740
  44.8097270  76.9716590  79.5924320  46.1508720  79.0491280  86.9571660
  46.6493970  79.5237100  87.6223510  46.2931670  78.1254800  87.1641690
  48.5568220  74.3545240  80.3974920  48.4336000  74.3731370  79.4484430
  49.5052780  74.4024180  80.5173320  42.7287810  75.9379660  76.3329840
  43.5778340  76.3749810  76.2670030  42.3619080  76.2499920  77.1601900
  53.3575580  75.2659240  87.8000050  52.8549180  76.0064640  88.1393860
  54.1732240  75.6543240  87.4836840  51.6497590  80.5092420  81.2461410
  50.7087730  80.5242650  81.4209100  51.9641660  79.7228380  81.6921710
  41.6279230  82.1912020  74.8065370  42.3942500  82.0793380  75.3690800
  41.7053920  81.4949990  74.1542140  40.3225990  79.6237090  75.4898260
  40.4029580  78.6764600  75.6015660  41.2145740  79.9543970  75.5958920
  44.7520410  84.1666200  74.2800720  44.6471050  83.5518550  75.0062100
  44.5844630  83.6432090  73.4963730  47.9923140  83.2286230  74.8842710
  47.4433240  83.6755530  75.5285450  48.6142400  82.7235480  75.4080380
  43.6598260  82.1877150  76.7808010  44.0814680  82.0217020  77.6239400
  43.7849100  81.3777380  76.2863150  46.1725900  81.2114760  74.0285110
  46.6931560  80.4963780  73.6626260  46.8194300  81.8500630  74.3285620
  45.0759420  73.6909310  86.7003670  44.6276720  73.7133570  85.8549220
  44.4424620  73.2928330  87.2973970  45.4818970  82.5863640  87.3216110
  45.9007080  83.4296370  87.1492350  44.5627600  82.7235680  87.0922890
  50.1570770  80.8717010  87.2816460  49.6305990  81.3959630  86.6781600
  50.5002110  81.5044400  87.9126190  42.5557160  78.2610380  73.7266170
  42.3546220  77.3977740  74.0879510  42.3849210  78.1743740  72.7887770
  50.0345470  73.0718610  76.2553050  50.3147760  72.2286510  76.6112470
  49.2611200  73.3041720  76.7691800  41.3539960  75.3611000  73.7144050
  41.6565860  75.3678430  72.8063200  42.0934550  75.0108860  74.2111710
  44.5724890  74.3045620  74.7000250  44.2246890  73.6269610  74.1202700
  44.7737660  73.8435130  75.5143640  54.4126190  82.3095340  76.8656960
  55.1745100  82.8791990  76.9716650  54.4280560  81.7422540  77.6365270
  37.9130530  80.8333270  81.0964620  37.2579370  80.5644910  80.4524320
  38.7508480  80.7237750  80.6466600  55.4186160  83.1645440  81.7098890
  55.7894990  82.3812760  81.3034860  56.0588090  83.8534540  81.5316190
  54.4645360  82.6029710  74.0229480  54.7394200  83.5108590  73.8948700
  54.2756100  82.5392240  74.9591470  50.8620970  75.6274560  75.3183110
  51.2805850  75.4405540  74.4779770  50.5557030  74.7753610  75.6286040
  54.3610700  80.5398700  79.0158910  53.9854300  79.7726630  78.5840200
  53.6313820  80.9221400  79.5033840  38.9506460  81.2185840  85.6367960
  39.3179500  81.1313240  86.5163980  38.3817280  80.4552390  85.5374820
  53.7510320  79.6870220  88.6498430  53.5196410  79.4582970  87.7496380
  54.0114870  80.6069770  88.6043320  37.1268610  78.0432200  77.0389950
  36.2232690  78.3062400  76.8641610  37.6109230  78.3143370  76.2589910
  53.6361660  78.7656190  82.3166150  54.1599140  78.2718840  81.6856320
  54.2221080  78.9006550  83.0613720  53.8151380  78.8496060  85.8385700
  52.8654090  78.8159600  85.9530690  53.9964390  79.7596170  85.6035470
  39.6695820  77.0997740  74.9484330  40.3787520  76.6780960  74.4631610
  38.9535760  77.1672970  74.3167680  39.3169980  73.1537070  73.9886980
  40.0398110  73.6946010  74.3068200  39.5894500  72.8800490  73.1128520
  53.1261630  78.0229540  78.2558560  53.6220750  77.7900410  79.0407440
  52.9277700  77.1841380  77.8396200  39.0062170  72.4043260  83.8909600
  39.6538360  71.8540640  83.4504760  39.4264010  72.6586410  84.7125410
  54.5548790  76.6590490  80.7896240  54.4448070  76.5046530  81.7278510
  55.3156380  76.1311430  80.5471650  52.9014510  72.5984620  87.2479240
  53.5386730  73.2118760  87.6138430  53.0489400  72.6345280  86.3028470
  55.4439060  74.4898410  74.0302380  56.3688370  74.3579590  73.8220670
  55.4214850  74.5691230  74.9838830  55.5177550  75.2609070  76.6559090
  54.7229050  75.1954190  77.1852000  55.7220830  76.1959710  76.6444440
  38.7594170  72.5598930  86.6334920  38.4108990  73.0162750  87.3993100
  38.4281870  71.6656060  86.7157350  49.6501590  71.9713010  86.1215920
  48.7761430  72.3048120  85.9188850  49.5412340  71.4986190  86.9467790
  50.5573570  74.1783880  87.5057640  50.2286930  73.3635640  87.1259370
  51.5055870  74.1353690  87.3823330  47.3976410  72.8882850  85.0608830
  46.6148200  73.3628350  85.3405590  47.1039340  71.9837680  84.9522010
  51.9497480  73.5905950  83.1057920  52.3905570  73.5351050  82.2579520
  51.6805070  74.5063960  83.1768100  53.8136050  73.2221190  81.1166740
  53.7524450  72.2782410  80.9697760  54.5928080  73.3301280  81.6620200
  38.7416820  73.1930330  77.5822550  39.4996180  73.3059210  77.0086580
  38.2793990  74.0299530  77.5365980  45.2830630  75.3069600  80.5724860
  44.4705140  74.9326490  80.2320740  45.7872270  74.5514680  80.8746050
  49.7855610  71.9712050  81.8107930  50.3884980  72.5432260  82.2856450
  49.0448600  72.5351490  81.5881830  52.9290210  72.3733610  77.0848210
  53.1240840  73.2717060  77.3515640  52.1420080  72.1420690  77.5781160
  41.1141970  73.7194380  76.1224520  41.6434730  72.9324180  75.9932470
  41.7470290  74.3985570  76.3560050  43.3079810  73.4569520  79.1769910
  42.6782550  72.7556830  79.3440040  42.7684950  74.2173650  78.9603070
  48.9408980  80.1699550  62.5537610  48.8603030  79.2554160  62.2829320
  48.5273400  80.6666620  61.8477320  47.0727020  81.9478570  64.4346880
  46.2969120  81.4679010  64.7245450  47.7239950  81.2684220  64.2603040
  41.0892850  82.2598380  65.3122640  40.2577730  82.0047090  65.7119150
  41.6973830  82.3309150  66.0480560  39.4984800  77.2200270  59.0965030
  38.6101500  77.5616240  58.9944910  39.7825990  77.0200590  58.2045860
  37.4617810  79.8205920  64.9804730  38.0333920  79.0528120  64.9808370
  37.4619350  80.1194680  64.0711340  46.5136010  84.6235760  64.4417040
  46.4444290  83.6825700  64.2806170  47.2755870  84.7137170  65.0139610
  38.7042680  75.2290280  66.7673660  38.5245520  74.3316030  67.0476420
  38.3022760  75.7762150  67.4420610  47.5441180  77.4306140  64.6685970
  47.9206000  76.5578020  64.5559640  47.4460690  77.7664840  63.7776410
  41.6746190  75.8031770  60.1303410  41.7812940  76.7035500  60.4372170
  40.7638550  75.7549740  59.8398060  51.3265300  74.9256580  61.6014310
  52.1474920  74.4353150  61.6439790  51.3599380  75.5154240  62.3546150
  39.3229350  77.7250780  65.3756000  40.0039460  77.9889150  65.9943400
  39.0077400  76.8851650  65.7094010  43.5153920  78.7718140  64.4628590
  44.0232140  79.2699110  65.1033610  44.0467160  77.9953340  64.2867950
  55.6164850  76.9423330  68.1657940  54.9117020  77.3305040  67.6473050
  55.8822770  77.6373620  68.7678870  41.7990020  73.4116700  68.7292010
  41.8008460  73.9289090  67.9237910  40.9694330  72.9346880  68.7061940
  48.1861110  83.5236010  60.2281910  47.5678380  83.9885460  59.6644630
  48.6984360  84.2163490  60.6451420  43.0492870  83.0511880  66.9065510
  42.7162250  83.6780800  67.5486580  43.2259550  83.5773760  66.1267180
  51.5626780  76.8656960  64.3741850  50.8582350  77.1541850  64.9544960
  51.9238940  77.6757070  64.0141410  41.4805350  75.1226660  66.7362460
  41.8222160  75.9668710  66.4416330  40.5421160  75.2710400  66.8527800
  37.5544310  84.2092540  57.6021540  37.1772290  84.6979640  56.8706440
  37.8117380  84.8817820  58.2328070  54.6313700  76.3111750  64.7651060
  53.6838610  76.3450730  64.8966490  54.9563690  77.1250700  65.1500420
  45.1633240  72.6108930  63.0607050  45.4708220  72.0555820  62.3442550
  44.2333940  72.7453390  62.8780040  50.1133740  83.2306060  66.6797120
  50.5302530  83.0166170  65.8450580  50.8373560  83.4878850  67.2505740
  47.5514000  80.6757760  59.7967170  46.6243280  80.6095140  60.0255640
  47.7038820  81.6137890  59.6822410  47.5383080  76.9474760  56.7934330
  46.5986750  77.1088720  56.8786790  47.8566340  77.6660440  56.2470320
  54.0595840  81.6293280  66.7713360  53.2314470  81.6986370  66.2963490
  54.6546320  82.2147590  66.3029190  51.5811290  82.2378060  60.3002420
  50.9623710  81.8997610  59.6528720  51.5635740  81.5937820  61.0081610
  51.0237850  78.4162600  67.7168230  50.6109030  79.2416310  67.9708220
  50.2913800  77.8307640  67.5244590  43.1570640  81.2022500  62.5786900
  42.7527640  80.4899750  62.0832800  43.2433760  80.8575740  63.4674940
  43.6252340  84.8890060  64.7426110  43.3280630  84.2835530  64.0633890
  44.5752160  84.9267370  64.6315470  41.8699260  77.9765710  66.3585940
  42.4213850  78.0861050  65.5839190  42.3842770  78.3503310  67.0741170
  42.7170770  84.6271750  71.3933910  41.8199300  84.8511720  71.6407310
  42.7423640  84.7506690  70.4445310  49.7575990  81.4764870  57.3075170
  50.1969270  80.6387300  57.1612990  50.4704410  82.1094270  57.3939310
  41.5441990  81.4985070  69.9691280  41.4049760  82.3707870  70.3378680
  40.6623350  81.1557880  69.8239220  53.3393130  72.7307680  55.6216210
  53.0265790  72.8234510  56.5215280  54.1005600  73.3088710  55.5713640
  39.8575270  80.0967480  60.0793550  39.7372870  80.8229570  59.4674820
  39.5476160  79.3270390  59.6021460  37.4960640  83.2682620  65.8862190
  37.5741060  83.4031390  64.9417910  38.1102320  82.5598510  66.0790310
  54.5494420  77.4679180  71.5990350  53.9338690  77.9758850  71.0705810
  54.2290840  76.5677510  71.5416290  37.5520160  84.3096790  68.4256650
  37.7151200  83.8402150  67.6076020  38.0172610  83.8020350  69.0905490
  42.3238930  73.4402550  63.4617220  41.8807080  74.2212090  63.1301740
  42.8823920  73.7632440  64.1688160  46.6108740  76.3071070  69.0652540
  46.1488110  76.5154090  69.8772480  46.2086850  75.4930420  68.7623210
  51.6113250  77.5280020  70.1949200  50.7606840  77.2285770  70.5158270
  51.4515040  77.7722030  69.2833020  48.7062960  79.0281770  72.2947990
  49.0316370  78.1945520  71.9550220  49.4943290  79.5510290  72.4426320
  45.4397750  73.0613250  58.3423050  44.8151930  73.0573120  59.0676360
  45.3527870  72.1944210  57.9459020  44.3614830  73.9849880  65.3206820
  44.6587160  74.8912710  65.2398840  44.9100390  73.4968660  64.7066390
  42.1153150  78.5636120  61.1898470  41.8894070  78.3473290  62.0945090
  41.3345680  78.9964580  60.8444440  49.3450910  78.5699490  59.7889120
  48.7459800  79.2935290  59.6052740  49.8930520  78.5076270  59.0065570
  44.5552360  79.4621700  71.8558740  44.4595960  78.5216430  71.7059140
  45.3984340  79.6836770  71.4606810  47.9515780  77.2063030  61.8192400
  48.3445350  77.5235230  61.0061090  48.3132630  76.3274910  61.9336920
  39.6862900  75.8735370  70.0092520  39.2926290  76.7210580  70.2165300
  38.9981300  75.2361740  70.2001160  46.2607950  75.9570340  73.0789260
  45.5706270  75.7642540  73.7135350  47.0040250  76.2404980  73.6113560
  36.9879950  73.7963830  64.0422600  36.6993000  74.3666690  64.7547580
  37.7325710  73.3168280  64.4053830  37.1750180  77.7383950  55.2525320
  37.0924850  78.6814710  55.3940310  36.8233240  77.5958860  54.3737670
  48.5370920  79.7968780  65.9143180  47.8052040  80.3055590  66.2633280
  48.1395260  78.9798760  65.6131960  44.9748310  76.4722980  64.3195670
  44.9784370  76.0312930  63.4700210  45.8699430  76.7940310  64.4267490
  40.8250690  76.3549470  63.2789880  40.4850740  76.8324700  64.0356930
  40.0628010  75.9014590  62.9190980  45.0368460  77.4735060  57.3102430
  45.1581280  77.4321540  58.2588250  44.6516970  78.3359210  57.1549160
  48.9996830  75.2502460  65.3266120  49.0169570  75.7011110  66.1707970
  48.7512410  74.3508100  65.5399560  44.0489960  79.7836200  56.7085730
  43.4806860  79.3354450  56.0821640  44.7578960  80.1428980  56.1750880
  52.4267580  72.6634640  71.1652500  52.7513350  71.9324300  71.6910480
  52.4624090  72.3448280  70.2633490  39.1259140  83.6848220  70.5852460
  38.7413930  83.0441890  71.1835420  39.4371330  84.3884340  71.1547190
  45.2756280  80.5324760  66.0661080  45.6426410  80.0583330  66.8122420
  45.0861340  81.4066330  66.4069420  38.1396770  75.2768450  62.1954550
  37.8543690  74.9124120  63.0333170  38.0775630  74.5448910  61.5817690
  43.0655650  79.5733400  68.3845290  42.7612720  80.4525380  68.6095650
  44.0202110  79.6333190  68.4202730  41.5937440  83.7794390  58.9812140
  40.8199700  83.2392010  58.8210860  42.3232070  83.2601000  58.6429900
  52.3525420  82.7759750  64.7738530  53.0724540  83.2715040  64.3834640
  52.1507240  82.0977640  64.1292400  47.8135360  74.1697710  58.9167920
  46.9999970  73.6710880  58.8413230  47.6197310  75.0095960  58.5004270
  47.7344220  82.8468810  70.6607530  47.6681530  81.9264480  70.4065120
  47.1049360  82.9444250  71.3752170  50.5283750  78.5417360  57.2130080
  51.4163370  78.8534590  57.0381420  50.4988840  77.6689610  56.8210660
  41.6374840  83.4474770  62.6190950  42.1553510  82.6443030  62.5647840
  41.1858860  83.3853910  63.4607780  39.1219380  80.4136140  69.5316650
  38.7634320  81.0789990  70.1189990  38.8273940  79.5819690  69.9029270
  42.3232500  80.8720380  72.4156200  42.0232640  81.0177560  71.5184020
  43.0943740  80.3125670  72.3229590  52.7998020  79.8529200  56.6809940
  52.7161740  80.2843420  55.8306380  53.5192210  80.3127550  57.1136760
  53.8772160  82.3096720  69.7579910  53.1520350  82.9025500  69.5609300
  54.4047620  82.3020260  68.9593280  49.4071750  84.0356890  63.2563760
  49.7595570  83.4385020  62.5965130  48.5234080  83.7101120  63.4272010
  37.6327430  80.4127400  56.1551250  38.5022280  80.6952200  56.4387170
  37.1417750  81.2263270  56.0400060  44.7962240  81.8000610  60.2759530
  45.2525020  82.6105860  60.5019720  44.4450450  81.4823750  61.1078020
  40.6974020  72.1438260  60.7482050  40.5688650  72.1356160  61.6966970
  39.8736040  72.4821350  60.3973060  37.6967950  73.9029380  70.2088750
  36.9826470  74.1026300  70.8141360  38.1162990  73.1268950  70.5803550
  51.7998900  83.5159860  57.6082580  51.5120600  83.9772550  58.3960460
  52.5951070  83.0557630  57.8766800  39.6173940  82.2300870  58.2833310
  39.0101890  82.9699770  58.2928610  40.0923290  82.3200230  57.4571510
  49.1906730  76.3951690  67.9590200  49.5587550  75.5746900  68.2869770
  48.3304930  76.4553580  68.3745850  52.5568760  75.3508630  58.7677760
  51.9281920  75.4554300  58.0535990  52.0620680  75.5705410  59.5571640
  44.5252790  77.6294580  60.1835640  43.8168940  78.0980920  60.6249250
  44.8097270  76.9716590  60.8180830  46.1508720  79.0491280  68.1828170
  46.6493970  79.5237100  68.8480020  46.2931670  78.1254800  68.3898200
  48.5568220  74.3545240  61.6231430  48.4336000  74.3731370  60.6740940
  49.5052780  74.4024180  61.7429830  42.7287810  75.9379660  57.5586350
  43.5778340  76.3749810  57.4926540  42.3619080  76.2499920  58.3858410
  53.3575580  75.2659240  69.0256560  52.8549180  76.0064640  69.3650370
  54.1732240  75.6543240  68.7093350  51.6497590  80.5092420  62.4717920
  50.7087730  80.5242650  62.6465610  51.9641660  79.7228380  62.9178220
  41.6279230  82.1912020  56.0321880  42.3942500  82.0793380  56.5947310
  41.7053920  81.4949990  55.3798650  40.3225990  79.6237090  56.7154770
  40.4029580  78.6764600  56.8272170  41.2145740  79.9543970  56.8215430
  48.9663610  85.0658420  72.9550300  48.3601770  85.0890020  72.2146050
  48.6617720  84.3341460  73.4917550  37.8496790  81.4452010  71.9510940
  38.3535810  80.8659290  72.5227170  37.1104210  81.7292240  72.4887310
  44.7520410  84.1666200  55.5057230  44.6471050  83.5518550  56.2318610
  44.5844630  83.6432090  54.7220240  44.9034730  82.8523000  71.4846460
  44.1380400  83.4208000  71.4001130  45.0850690  82.5599210  70.5914690
  47.9923140  83.2286230  56.1099220  47.4433240  83.6755530  56.7541960
  48.6142400  82.7235480  56.6336890  52.0458080  84.5828330  72.0421480
  52.7867550  84.9204090  71.5388940  51.2830760  84.7520390  71.4891250
  39.8819870  79.5881600  72.8461010  39.9225210  79.2895470  73.7546240
  40.7365370  79.9889210  72.6868530  43.6598260  82.1877150  58.0064520
  44.0814680  82.0217020  58.8495910  43.7849100  81.3777380  57.5119660
  41.8225680  78.1673700  70.8135500  41.2922140  77.6764650  70.1858840
  42.4913750  78.5957900  70.2793430  46.1725900  81.2114760  55.2541620
  46.6931560  80.4963780  54.8882770  46.8194300  81.8500630  55.5542130
  50.7203740  82.6343160  70.5776690  51.1344760  82.7888240  71.4267110
  49.7854740  82.7598380  70.7402470  51.1925910  79.9739320  72.5815840
  51.7746680  79.2191640  72.4936320  51.3687680  80.5046760  71.8047320
  42.3097980  75.1336070  70.8932790  42.2154850  74.5156820  70.1683660
  41.7295370  75.8602360  70.6662700  45.0759420  73.6909310  67.9260180
  44.6276720  73.7133570  67.0805730  44.4424620  73.2928330  68.5230480
  45.4818970  82.5863640  68.5472620  45.9007080  83.4296370  68.3748860
  44.5627600  82.7235680  68.3179400  47.8182870  80.3179820  69.9310460
  47.9379080  79.7220960  70.6705300  48.6776870  80.3549510  69.5111760
  50.1570770  80.8717010  68.5072970  49.6305990  81.3959630  67.9038110
  50.5002110  81.5044400  69.1382700  42.5557160  78.2610380  54.9522680
  42.3546220  77.3977740  55.3136020  42.3849210  78.1743740  54.0144280
  44.5851640  76.8601170  71.1886280  45.1751330  76.5517020  71.8764100
  43.7671880  76.3880920  71.3446180  49.4045070  76.4766980  71.4219300
  48.7160590  75.8148520  71.3569290  50.1251090  76.0305250  71.8667760
  50.0345470  73.0718610  57.4809560  50.3147760  72.2286510  57.8368980
  49.2611200  73.3041720  57.9948310  41.3539960  75.3611000  54.9400560
  41.6565860  75.3678430  54.0319710  42.0934550  75.0108860  55.4368220
  44.5724890  74.3045620  55.9256760  44.2246890  73.6269610  55.3459210
  44.7737660  73.8435130  56.7400150  54.4126190  82.3095340  58.0913470
  55.1745100  82.8791990  58.1973160  54.4280560  81.7422540  58.8621780
  37.9130530  80.8333270  62.3221130  37.2579370  80.5644910  61.6780830
  38.7508480  80.7237750  61.8723110  55.4186160  83.1645440  62.9355400
  55.7894990  82.3812760  62.5291370  56.0588090  83.8534540  62.7572700
  54.4645360  82.6029710  55.2485990  54.7394200  83.5108590  55.1205210
  54.2756100  82.5392240  56.1847980  50.8620970  75.6274560  56.5439620
  51.2805850  75.4405540  55.7036280  50.5557030  74.7753610  56.8542550
  54.3610700  80.5398700  60.2415420  53.9854300  79.7726630  59.8096710
  53.6313820  80.9221400  60.7290350  38.9506460  81.2185840  66.8624470
  39.3179500  81.1313240  67.7420490  38.3817280  80.4552390  66.7631330
  53.7510320  79.6870220  69.8754940  53.5196410  79.4582970  68.9752890
  54.0114870  80.6069770  69.8299830  38.5022460  78.1294930  70.7682890
  37.6078510  78.0961690  71.1076600  39.0420010  78.3281720  71.5334140
  52.1898390  74.9126650  72.6534640  53.0668570  74.9210050  73.0368640
  52.2019230  74.1757490  72.0426990  37.1268610  78.0432200  58.2646460
  36.2232690  78.3062400  58.0898120  37.6109230  78.3143370  57.4846420
  53.6361660  78.7656190  63.5422660  54.1599140  78.2718840  62.9112830
  54.2221080  78.9006550  64.2870230  53.8151380  78.8496060  67.0642210
  52.8654090  78.8159600  67.1787200  53.9964390  79.7596170  66.8291980
  39.6695820  77.0997740  56.1740840  40.3787520  76.6780960  55.6888120
  38.9535760  77.1672970  55.5424190  39.3169980  73.1537070  55.2143490
  40.0398110  73.6946010  55.5324710  39.5894500  72.8800490  54.3385030
  53.1261630  78.0229540  59.4815070  53.6220750  77.7900410  60.2663950
  52.9277700  77.1841380  59.0652710  39.0062170  72.4043260  65.1166110
  39.6538360  71.8540640  64.6761270  39.4264010  72.6586410  65.9381920
  54.5548790  76.6590490  62.0152750  54.4448070  76.5046530  62.9535020
  55.3156380  76.1311430  61.7728160  52.9014510  72.5984620  68.4735750
  53.5386730  73.2118760  68.8394940  53.0489400  72.6345280  67.5284980
  55.4439060  74.4898410  55.2558890  56.3688370  74.3579590  55.0477180
  55.4214850  74.5691230  56.2095340  55.5177550  75.2609070  57.8815600
  54.7229050  75.1954190  58.4108510  55.7220830  76.1959710  57.8700950
  38.7594170  72.5598930  67.8591430  38.4108990  73.0162750  68.6249610
  38.4281870  71.6656060  67.9413860  46.2718990  73.7510810  71.3810850
  46.2107880  74.3432640  72.1306260  47.2119370  73.6436770  71.2361110
  48.9093550  73.4080870  71.0203140  49.5233960  73.7260160  70.3584220
  49.4543110  72.9229460  71.6399000  39.4314810  72.0875130  71.1342200
  39.9797800  71.9063180  70.3708310  39.4970120  71.2969240  71.6698510
  49.6501590  71.9713010  67.3472430  48.7761430  72.3048120  67.1445360
  49.5412340  71.4986190  68.1724300  50.5573570  74.1783880  68.7314150
  50.2286930  73.3635640  68.3515880  51.5055870  74.1353690  68.6079840
  47.3976410  72.8882850  66.2865340  46.6148200  73.3628350  66.5662100
  47.1039340  71.9837680  66.1778520  51.9497480  73.5905950  64.3314430
  52.3905570  73.5351050  63.4836030  51.6805070  74.5063960  64.4024610
  53.8136050  73.2221190  62.3423250  53.7524450  72.2782410  62.1954270
  54.5928080  73.3301280  62.8876710  38.7416820  73.1930330  58.8079060
  39.4996180  73.3059210  58.2343090  38.2793990  74.0299530  58.7622490
  45.2830630  75.3069600  61.7981370  44.4705140  74.9326490  61.4577250
  45.7872270  74.5514680  62.1002560  49.7855610  71.9712050  63.0364440
  50.3884980  72.5432260  63.5112960  49.0448600  72.5351490  62.8138340
  52.9290210  72.3733610  58.3104720  53.1240840  73.2717060  58.5772150
  52.1420080  72.1420690  58.8037670  41.1141970  73.7194380  57.3481030
  41.6434730  72.9324180  57.2188980  41.7470290  74.3985570  57.5816560
  43.3079810  73.4569520  60.4026420  42.6782550  72.7556830  60.5696550
  42.7684950  74.2173650  60.1859580  43.4335370  72.7353500  72.8378910
  43.1519640  73.2387100  72.0739730  43.8155070  71.9375250  72.4721040
  50.0350830  72.1507080  73.4159380  49.9216280  72.4701690  74.3110900
  50.8520570  72.5519590  73.1196660  48.9408980  80.1699550  43.7794120
  48.8603030  79.2554160  43.5085830  48.5273400  80.6666620  43.0733830
  47.0727020  81.9478570  45.6603390  46.2969120  81.4679010  45.9501960
  47.7239950  81.2684220  45.4859550  41.0892850  82.2598380  46.5379150
  40.2577730  82.0047090  46.9375660  41.6973830  82.3309150  47.2737070
  39.4984800  77.2200270  40.3221540  38.6101500  77.5616240  40.2201420
  39.7825990  77.0200590  39.4302370  37.4617810  79.8205920  46.2061240
  38.0333920  79.0528120  46.2064880  37.4619350  80.1194680  45.2967850
  46.5136010  84.6235760  45.6673550  46.4444290  83.6825700  45.5062680
  47.2755870  84.7137170  46.2396120  38.7042680  75.2290280  47.9930170
  38.5245520  74.3316030  48.2732930  38.3022760  75.7762150  48.6677120
  47.5441180  77.4306140  45.8942480  47.9206000  76.5578020  45.7816150
  47.4460690  77.7664840  45.0032920  41.6746190  75.8031770  41.3559920
  41.7812940  76.7035500  41.6628680  40.7638550  75.7549740  41.0654570
  39.3229350  77.7250780  46.6012510  40.0039460  77.9889150  47.2199910
  39.0077400  76.8851650  46.9350520  43.5153920  78.7718140  45.6885100
  44.0232140  79.2699110  46.3290120  44.0467160  77.9953340  45.5124460
  55.6164850  76.9423330  49.3914450  54.9117020  77.3305040  48.8729560
  55.8822770  77.6373620  49.9935380  41.7990020  73.4116700  49.9548520
  41.8008460  73.9289090  49.1494420  40.9694330  72.9346880  49.9318450
  48.1861110  83.5236010  41.4538420  47.5678380  83.9885460  40.8901140
  48.6984360  84.2163490  41.8707930  43.0492870  83.0511880  48.1322020
  42.7162250  83.6780800  48.7743090  43.2259550  83.5773760  47.3523690
  51.5626780  76.8656960  45.5998360  50.8582350  77.1541850  46.1801470
  51.9238940  77.6757070  45.2397920  41.4805350  75.1226660  47.9618970
  41.8222160  75.9668710  47.6672840  40.5421160  75.2710400  48.0784310
  37.5544310  84.2092540  38.8278050  37.1772290  84.6979640  38.0962950
  37.8117380  84.8817820  39.4584580  54.6313700  76.3111750  45.9907570
  53.6838610  76.3450730  46.1223000  54.9563690  77.1250700  46.3756930
  45.1633240  72.6108930  44.2863560  45.4708220  72.0555820  43.5699060
  44.2333940  72.7453390  44.1036550  50.1133740  83.2306060  47.9053630
  50.5302530  83.0166170  47.0707090  50.8373560  83.4878850  48.4762250
  47.5514000  80.6757760  41.0223680  46.6243280  80.6095140  41.2512150
  47.7038820  81.6137890  40.9078920  47.5383080  76.9474760  38.0190840
  46.5986750  77.1088720  38.1043300  47.8566340  77.6660440  37.4726830
  54.0595840  81.6293280  47.9969870  53.2314470  81.6986370  47.5220000
  54.6546320  82.2147590  47.5285700  51.5811290  82.2378060  41.5258930
  50.9623710  81.8997610  40.8785230  51.5635740  81.5937820  42.2338120
  51.0237850  78.4162600  48.9424740  50.6109030  79.2416310  49.1964730
  50.2913800  77.8307640  48.7501100  43.1570640  81.2022500  43.8043410
  42.7527640  80.4899750  43.3089310  43.2433760  80.8575740  44.6931450
  43.6252340  84.8890060  45.9682620  43.3280630  84.2835530  45.2890400
  44.5752160  84.9267370  45.8571980  41.8699260  77.9765710  47.5842450
  42.4213850  78.0861050  46.8095700  42.3842770  78.3503310  48.2997680
  42.7170770  84.6271750  52.6190420  41.8199300  84.8511720  52.8663820
  42.7423640  84.7506690  51.6701820  49.7575990  81.4764870  38.5331680
  50.1969270  80.6387300  38.3869500  50.4704410  82.1094270  38.6195820
  41.5441990  81.4985070  51.1947790  41.4049760  82.3707870  51.5635190
  40.6623350  81.1557880  51.0495730  39.8575270  80.0967480  41.3050060
  39.7372870  80.8229570  40.6931330  39.5476160  79.3270390  40.8277970
  37.4960640  83.2682620  47.1118700  37.5741060  83.4031390  46.1674420
  38.1102320  82.5598510  47.3046820  54.5494420  77.4679180  52.8246860
  53.9338690  77.9758850  52.2962320  54.2290840  76.5677510  52.7672800
  37.5520160  84.3096790  49.6513160  37.7151200  83.8402150  48.8332530
  38.0172610  83.8020350  50.3162000  42.3238930  73.4402550  44.6873730
  41.8807080  74.2212090  44.3558250  42.8823920  73.7632440  45.3944670
  46.6108740  76.3071070  50.2909050  46.1488110  76.5154090  51.1028990
  46.2086850  75.4930420  49.9879720  51.6113250  77.5280020  51.4205710
  50.7606840  77.2285770  51.7414780  51.4515040  77.7722030  50.5089530
  48.7062960  79.0281770  53.5204500  49.0316370  78.1945520  53.1806730
  49.4943290  79.5510290  53.6682830  45.4397750  73.0613250  39.5679560
  44.8151930  73.0573120  40.2932870  45.3527870  72.1944210  39.1715530
  44.3614830  73.9849880  46.5463330  44.6587160  74.8912710  46.4655350
  44.9100390  73.4968660  45.9322900  42.1153150  78.5636120  42.4154980
  41.8894070  78.3473290  43.3201600  41.3345680  78.9964580  42.0700950
  49.3450910  78.5699490  41.0145630  48.7459800  79.2935290  40.8309250
  49.8930520  78.5076270  40.2322080  44.5552360  79.4621700  53.0815250
  44.4595960  78.5216430  52.9315650  45.3984340  79.6836770  52.6863320
  47.9515780  77.2063030  43.0448910  48.3445350  77.5235230  42.2317600
  48.3132630  76.3274910  43.1593430  39.6862900  75.8735370  51.2349030
  39.2926290  76.7210580  51.4421810  38.9981300  75.2361740  51.4257670
  46.2607950  75.9570340  54.3045770  45.5706270  75.7642540  54.9391860
  47.0040250  76.2404980  54.8370070  36.9879950  73.7963830  45.2679110
  36.6993000  74.3666690  45.9804090  37.7325710  73.3168280  45.6310340
  37.1750180  77.7383950  36.4781830  37.0924850  78.6814710  36.6196820
  36.8233240  77.5958860  35.5994180  48.5370920  79.7968780  47.1399690
  47.8052040  80.3055590  47.4889790  48.1395260  78.9798760  46.8388470
  44.9748310  76.4722980  45.5452180  44.9784370  76.0312930  44.6956720
  45.8699430  76.7940310  45.6524000  40.8250690  76.3549470  44.5046390
  40.4850740  76.8324700  45.2613440  40.0628010  75.9014590  44.1447490
  45.0368460  77.4735060  38.5358940  45.1581280  77.4321540  39.4844760
  44.6516970  78.3359210  38.3805670  48.9996830  75.2502460  46.5522630
  49.0169570  75.7011110  47.3964480  48.7512410  74.3508100  46.7656070
  44.0489960  79.7836200  37.9342240  43.4806860  79.3354450  37.3078150
  44.7578960  80.1428980  37.4007390  52.4267580  72.6634640  52.3909010
  52.7513350  71.9324300  52.9166990  52.4624090  72.3448280  51.4890000
  39.1259140  83.6848220  51.8108970  38.7413930  83.0441890  52.4091930
  39.4371330  84.3884340  52.3803700  45.2756280  80.5324760  47.2917590
  45.6426410  80.0583330  48.0378930  45.0861340  81.4066330  47.6325930
  38.1396770  75.2768450  43.4211060  37.8543690  74.9124120  44.2589680
  38.0775630  74.5448910  42.8074200  43.0655650  79.5733400  49.6101800
  42.7612720  80.4525380  49.8352160  44.0202110  79.6333190  49.6459240
  41.5937440  83.7794390  40.2068650  40.8199700  83.2392010  40.0467370
  42.3232070  83.2601000  39.8686410  52.3525420  82.7759750  45.9995040
  53.0724540  83.2715040  45.6091150  52.1507240  82.0977640  45.3548910
  47.8135360  74.1697710  40.1424430  46.9999970  73.6710880  40.0669740
  47.6197310  75.0095960  39.7260780  47.7344220  82.8468810  51.8864040
  47.6681530  81.9264480  51.6321630  47.1049360  82.9444250  52.6008680
  50.5283750  78.5417360  38.4386590  51.4163370  78.8534590  38.2637930
  50.4988840  77.6689610  38.0467170  41.6374840  83.4474770  43.8447460
  42.1553510  82.6443030  43.7904350  41.1858860  83.3853910  44.6864290
  39.1219380  80.4136140  50.7573160  38.7634320  81.0789990  51.3446500
  38.8273940  79.5819690  51.1285780  42.3232500  80.8720380  53.6412710
  42.0232640  81.0177560  52.7440530  43.0943740  80.3125670  53.5486100
  52.7998020  79.8529200  37.9066450  52.7161740  80.2843420  37.0562890
  53.5192210  80.3127550  38.3393270  53.8772160  82.3096720  50.9836420
  53.1520350  82.9025500  50.7865810  54.4047620  82.3020260  50.1849790
  49.4071750  84.0356890  44.4820270  49.7595570  83.4385020  43.8221640
  48.5234080  83.7101120  44.6528520  37.6327430  80.4127400  37.3807760
  38.5022280  80.6952200  37.6643680  37.1417750  81.2263270  37.2656570
  44.7962240  81.8000610  41.5016040  45.2525020  82.6105860  41.7276230
  44.4450450  81.4823750  42.3334530  40.6974020  72.1438260  41.9738560
  40.5688650  72.1356160  42.9223480  39.8736040  72.4821350  41.6229570
  37.6967950  73.9029380  51.4345260  36.9826470  74.1026300  52.0397870
  38.1162990  73.1268950  51.8060060  51.7998900  83.5159860  38.8339090
  51.5120600  83.9772550  39.6216970  52.5951070  83.0557630  39.1023310
  39.6173940  82.2300870  39.5089820  39.0101890  82.9699770  39.5185120
  40.0923290  82.3200230  38.6828020  49.1906730  76.3951690  49.1846710
  49.5587550  75.5746900  49.5126280  48.3304930  76.4553580  49.6002360
  52.5568760  75.3508630  39.9934270  51.9281920  75.4554300  39.2792500
  52.0620680  75.5705410  40.7828150  44.5252790  77.6294580  41.4092150
  43.8168940  78.0980920  41.8505760  44.8097270  76.9716590  42.0437340
  46.1508720  79.0491280  49.4084680  46.6493970  79.5237100  50.0736530
  46.2931670  78.1254800  49.6154710  42.7287810  75.9379660  38.7842860
  43.5778340  76.3749810  38.7183050  42.3619080  76.2499920  39.6114920
  53.3575580  75.2659240  50.2513070  52.8549180  76.0064640  50.5906880
  54.1732240  75.6543240  49.9349860  51.6497590  80.5092420  43.6974430
  50.7087730  80.5242650  43.8722120  51.9641660  79.7228380  44.1434730
  41.6279230  82.1912020  37.2578390  42.3942500  82.0793380  37.8203820
  41.7053920  81.4949990  36.6055160  40.3225990  79.6237090  37.9411280
  40.4029580  78.6764600  38.0528680  41.2145740  79.9543970  38.0471940
  48.9663610  85.0658420  54.1806810  48.3601770  85.0890020  53.4402560
  48.6617720  84.3341460  54.7174060  37.8496790  81.4452010  53.1767450
  38.3535810  80.8659290  53.7483680  37.1104210  81.7292240  53.7143820
  44.7520410  84.1666200  36.7313740  44.6471050  83.5518550  37.4575120
  44.5844630  83.6432090  35.9476750  44.9034730  82.8523000  52.7102970
  44.1380400  83.4208000  52.6257640  45.0850690  82.5599210  51.8171200
  47.9923140  83.2286230  37.3355730  47.4433240  83.6755530  37.9798470
  48.6142400  82.7235480  37.8593400  52.0458080  84.5828330  53.2677990
  52.7867550  84.9204090  52.7645450  51.2830760  84.7520390  52.7147760
  39.8819870  79.5881600  54.0717520  39.9225210  79.2895470  54.9802750
  40.7365370  79.9889210  53.9125040  43.6598260  82.1877150  39.2321030
  44.0814680  82.0217020  40.0752420  43.7849100  81.3777380  38.7376170
  41.8225680  78.1673700  52.0392010  41.2922140  77.6764650  51.4115350
  42.4913750  78.5957900  51.5049940  46.1725900  81.2114760  36.4798130
  46.6931560  80.4963780  36.1139280  46.8194300  81.8500630  36.7798640
  50.7203740  82.6343160  51.8033200  51.1344760  82.7888240  52.6523620
  49.7854740  82.7598380  51.9658980  51.1925910  79.9739320  53.8072350
  51.7746680  79.2191640  53.7192830  51.3687680  80.5046760  53.0303830
  42.3097980  75.1336070  52.1189300  42.2154850  74.5156820  51.3940170
  41.7295370  75.8602360  51.8919210  45.0759420  73.6909310  49.1516690
  44.6276720  73.7133570  48.3062240  44.4424620  73.2928330  49.7486990
  45.4818970  82.5863640  49.7729130  45.9007080  83.4296370  49.6005370
  44.5627600  82.7235680  49.5435910  47.8182870  80.3179820  51.1566970
  47.9379080  79.7220960  51.8961810  48.6776870  80.3549510  50.7368270
  50.1570770  80.8717010  49.7329480  49.6305990  81.3959630  49.1294620
  50.5002110  81.5044400  50.3639210  42.5557160  78.2610380  36.1779190
  42.3546220  77.3977740  36.5392530  42.3849210  78.1743740  35.2400790
  44.5851640  76.8601170  52.4142790  45.1751330  76.5517020  53.1020610
  43.7671880  76.3880920  52.5702690  49.4045070  76.4766980  52.6475810
  48.7160590  75.8148520  52.5825800  50.1251090  76.0305250  53.0924270
  50.0345470  73.0718610  38.7066070  50.3147760  72.2286510  39.0625490
  49.2611200  73.3041720  39.2204820  41.3539960  75.3611000  36.1657070
  41.6565860  75.3678430  35.2576220  42.0934550  75.0108860  36.6624730
  44.5724890  74.3045620  37.1513270  44.2246890  73.6269610  36.5715720
  44.7737660  73.8435130  37.9656660  54.4126190  82.3095340  39.3169980
  55.1745100  82.8791990  39.4229670  54.4280560  81.7422540  40.0878290
  37.9130530  80.8333270  43.5477640  37.2579370  80.5644910  42.9037340
  38.7508480  80.7237750  43.0979620  55.4186160  83.1645440  44.1611910
  55.7894990  82.3812760  43.7547880  56.0588090  83.8534540  43.9829210
  54.4645360  82.6029710  36.4742500  54.7394200  83.5108590  36.3461720
  54.2756100  82.5392240  37.4104490  50.8620970  75.6274560  37.7696130
  51.2805850  75.4405540  36.9292790  50.5557030  74.7753610  38.0799060
  54.3610700  80.5398700  41.4671930  53.9854300  79.7726630  41.0353220
  53.6313820  80.9221400  41.9546860  38.9506460  81.2185840  48.0880980
  39.3179500  81.1313240  48.9677000  38.3817280  80.4552390  47.9887840
  53.7510320  79.6870220  51.1011450  53.5196410  79.4582970  50.2009400
  54.0114870  80.6069770  51.0556340  38.5022460  78.1294930  51.9939400
  37.6078510  78.0961690  52.3333110  39.0420010  78.3281720  52.7590650
  52.1898390  74.9126650  53.8791150  53.0668570  74.9210050  54.2625150
  52.2019230  74.1757490  53.2683500  37.1268610  78.0432200  39.4902970
  36.2232690  78.3062400  39.3154630  37.6109230  78.3143370  38.7102930
  53.6361660  78.7656190  44.7679170  54.1599140  78.2718840  44.1369340
  54.2221080  78.9006550  45.5126740  53.8151380  78.8496060  48.2898720
  52.8654090  78.8159600  48.4043710  53.9964390  79.7596170  48.0548490
  39.6695820  77.0997740  37.3997350  40.3787520  76.6780960  36.9144630
  38.9535760  77.1672970  36.7680700  39.3169980  73.1537070  36.4400000
  40.0398110  73.6946010  36.7581220  39.5894500  72.8800490  35.5641540
  53.1261630  78.0229540  40.7071580  53.6220750  77.7900410  41.4920460
  52.9277700  77.1841380  40.2909220  39.0062170  72.4043260  46.3422620
  39.6538360  71.8540640  45.9017780  39.4264010  72.6586410  47.1638430
  54.5548790  76.6590490  43.2409260  54.4448070  76.5046530  44.1791530
  55.3156380  76.1311430  42.9984670  52.9014510  72.5984620  49.6992260
  53.5386730  73.2118760  50.0651450  53.0489400  72.6345280  48.7541490
  55.5177550  75.2609070  39.1072110  54.7229050  75.1954190  39.6365020
  55.7220830  76.1959710  39.0957460  38.7594170  72.5598930  49.0847940
  38.4108990  73.0162750  49.8506120  38.4281870  71.6656060  49.1670370
  46.2718990  73.7510810  52.6067360  46.2107880  74.3432640  53.3562770
  47.2119370  73.6436770  52.4617620  48.9093550  73.4080870  52.2459650
  49.5233960  73.7260160  51.5840730  49.4543110  72.9229460  52.8655510
  39.4314810  72.0875130  52.3598710  39.9797800  71.9063180  51.5964820
  39.4970120  71.2969240  52.8955020  49.6501590  71.9713010  48.5728940
  48.7761430  72.3048120  48.3701870  49.5412340  71.4986190  49.3980810
  50.5573570  74.1783880  49.9570660  50.2286930  73.3635640  49.5772390
  51.5055870  74.1353690  49.8336350  47.3976410  72.8882850  47.5121850
  46.6148200  73.3628350  47.7918610  47.1039340  71.9837680  47.4035030
  38.7416820  73.1930330  40.0335570  39.4996180  73.3059210  39.4599600
  38.2793990  74.0299530  39.9879000  45.2830630  75.3069600  43.0237880
  44.4705140  74.9326490  42.6833760  45.7872270  74.5514680  43.3259070
  41.1141970  73.7194380  38.5737540  41.6434730  72.9324180  38.4445490
  41.7470290  74.3985570  38.8073070  43.3079810  73.4569520  41.6282930
  42.6782550  72.7556830  41.7953060  42.7684950  74.2173650  41.4116090
  43.4335370  72.7353500  54.0635420  43.1519640  73.2387100  53.2996240
  43.8155070  71.9375250  53.6977550  50.0350830  72.1507080  54.6415890
  49.9216280  72.4701690  55.5367410  50.8520570  72.5519590  54.3453170
  48.9408980  80.1699550  25.0050630  48.8603030  79.2554160  24.7342340
  48.5273400  80.6666620  24.2990340  47.0727020  81.9478570  26.8859900
  46.2969120  81.4679010  27.1758470  47.7239950  81.2684220  26.7116060
  41.0892850  82.2598380  27.7635660  40.2577730  82.0047090  28.1632170
  41.6973830  82.3309150  28.4993580  39.4984800  77.2200270  21.5478050
  38.6101500  77.5616240  21.4457930  39.7825990  77.0200590  20.6558880
  37.4617810  79.8205920  27.4317750  38.0333920  79.0528120  27.4321390
  37.4619350  80.1194680  26.5224360  46.5136010  84.6235760  26.8930060
  46.4444290  83.6825700  26.7319190  47.2755870  84.7137170  27.4652630
  38.7042680  75.2290280  29.2186680  38.5245520  74.3316030  29.4989440
  38.3022760  75.7762150  29.8933630  47.5441180  77.4306140  27.1198990
  47.9206000  76.5578020  27.0072660  47.4460690  77.7664840  26.2289430
  41.6746190  75.8031770  22.5816430  41.7812940  76.7035500  22.8885190
  40.7638550  75.7549740  22.2911080  51.3265300  74.9256580  24.0527330
  52.1474920  74.4353150  24.0952810  51.3599380  75.5154240  24.8059170
  39.3229350  77.7250780  27.8269020  40.0039460  77.9889150  28.4456420
  39.0077400  76.8851650  28.1607030  43.5153920  78.7718140  26.9141610
  44.0232140  79.2699110  27.5546630  44.0467160  77.9953340  26.7380970
  55.6164850  76.9423330  30.6170960  54.9117020  77.3305040  30.0986070
  55.8822770  77.6373620  31.2191890  41.7990020  73.4116700  31.1805030
  41.8008460  73.9289090  30.3750930  40.9694330  72.9346880  31.1574960
  48.1861110  83.5236010  22.6794930  47.5678380  83.9885460  22.1157650
  48.6984360  84.2163490  23.0964440  43.0492870  83.0511880  29.3578530
  42.7162250  83.6780800  29.9999600  43.2259550  83.5773760  28.5780200
  51.5626780  76.8656960  26.8254870  50.8582350  77.1541850  27.4057980
  51.9238940  77.6757070  26.4654430  41.4805350  75.1226660  29.1875480
  41.8222160  75.9668710  28.8929350  40.5421160  75.2710400  29.3040820
  37.5544310  84.2092540  20.0534560  37.1772290  84.6979640  19.3219460
  37.8117380  84.8817820  20.6841090  54.6313700  76.3111750  27.2164080
  53.6838610  76.3450730  27.3479510  54.9563690  77.1250700  27.6013440
  45.1633240  72.6108930  25.5120070  45.4708220  72.0555820  24.7955570
  44.2333940  72.7453390  25.3293060  50.1133740  83.2306060  29.1310140
  50.5302530  83.0166170  28.2963600  50.8373560  83.4878850  29.7018760
  47.5514000  80.6757760  22.2480190  46.6243280  80.6095140  22.4768660
  47.7038820  81.6137890  22.1335430  47.5383080  76.9474760  19.2447350
  46.5986750  77.1088720  19.3299810  47.8566340  77.6660440  18.6983340
  54.0595840  81.6293280  29.2226380  53.2314470  81.6986370  28.7476510
  54.6546320  82.2147590  28.7542210  51.5811290  82.2378060  22.7515440
  50.9623710  81.8997610  22.1041740  51.5635740  81.5937820  23.4594630
  51.0237850  78.4162600  30.1681250  50.6109030  79.2416310  30.4221240
  50.2913800  77.8307640  29.9757610  43.1570640  81.2022500  25.0299920
  42.7527640  80.4899750  24.5345820  43.2433760  80.8575740  25.9187960
  43.6252340  84.8890060  27.1939130  43.3280630  84.2835530  26.5146910
  44.5752160  84.9267370  27.0828490  41.8699260  77.9765710  28.8098960
  42.4213850  78.0861050  28.0352210  42.3842770  78.3503310  29.5254190
  42.7170770  84.6271750  33.8446930  41.8199300  84.8511720  34.0920330
  42.7423640  84.7506690  32.8958330  49.7575990  81.4764870  19.7588190
  50.1969270  80.6387300  19.6126010  50.4704410  82.1094270  19.8452330
  41.5441990  81.4985070  32.4204300  41.4049760  82.3707870  32.7891700
  40.6623350  81.1557880  32.2752240  53.3393130  72.7307680  18.0729230
  53.0265790  72.8234510  18.9728300  54.1005600  73.3088710  18.0226660
  39.8575270  80.0967480  22.5306570  39.7372870  80.8229570  21.9187840
  39.5476160  79.3270390  22.0534480  37.4960640  83.2682620  28.3375210
  37.5741060  83.4031390  27.3930930  38.1102320  82.5598510  28.5303330
  54.5494420  77.4679180  34.0503370  53.9338690  77.9758850  33.5218830
  54.2290840  76.5677510  33.9929310  37.5520160  84.3096790  30.8769670
  37.7151200  83.8402150  30.0589040  38.0172610  83.8020350  31.5418510
  42.3238930  73.4402550  25.9130240  41.8807080  74.2212090  25.5814760
  42.8823920  73.7632440  26.6201180  46.6108740  76.3071070  31.5165560
  46.1488110  76.5154090  32.3285500  46.2086850  75.4930420  31.2136230
  51.6113250  77.5280020  32.6462220  50.7606840  77.2285770  32.9671290
  51.4515040  77.7722030  31.7346040  48.7062960  79.0281770  34.7461010
  49.0316370  78.1945520  34.4063240  49.4943290  79.5510290  34.8939340
  45.4397750  73.0613250  20.7936070  44.8151930  73.0573120  21.5189380
  45.3527870  72.1944210  20.3972040  44.3614830  73.9849880  27.7719840
  44.6587160  74.8912710  27.6911860  44.9100390  73.4968660  27.1579410
  42.1153150  78.5636120  23.6411490  41.8894070  78.3473290  24.5458110
  41.3345680  78.9964580  23.2957460  49.3450910  78.5699490  22.2402140
  48.7459800  79.2935290  22.0565760  49.8930520  78.5076270  21.4578590
  44.5552360  79.4621700  34.3071760  44.4595960  78.5216430  34.1572160
  45.3984340  79.6836770  33.9119830  47.9515780  77.2063030  24.2705420
  48.3445350  77.5235230  23.4574110  48.3132630  76.3274910  24.3849940
  39.6862900  75.8735370  32.4605540  39.2926290  76.7210580  32.6678320
  38.9981300  75.2361740  32.6514180  46.2607950  75.9570340  35.5302280
  45.5706270  75.7642540  36.1648370  47.0040250  76.2404980  36.0626580
  36.9879950  73.7963830  26.4935620  36.6993000  74.3666690  27.2060600
  37.7325710  73.3168280  26.8566850  37.1750180  77.7383950  17.7038340
  37.0924850  78.6814710  17.8453330  36.8233240  77.5958860  16.8250690
  48.5370920  79.7968780  28.3656200  47.8052040  80.3055590  28.7146300
  48.1395260  78.9798760  28.0644980  44.9748310  76.4722980  26.7708690
  44.9784370  76.0312930  25.9213230  45.8699430  76.7940310  26.8780510
  40.8250690  76.3549470  25.7302900  40.4850740  76.8324700  26.4869950
  40.0628010  75.9014590  25.3704000  45.0368460  77.4735060  19.7615450
  45.1581280  77.4321540  20.7101270  44.6516970  78.3359210  19.6062180
  48.9996830  75.2502460  27.7779140  49.0169570  75.7011110  28.6220990
  48.7512410  74.3508100  27.9912580  44.0489960  79.7836200  19.1598750
  43.4806860  79.3354450  18.5334660  44.7578960  80.1428980  18.6263900
  52.4267580  72.6634640  33.6165520  52.7513350  71.9324300  34.1423500
  52.4624090  72.3448280  32.7146510  39.1259140  83.6848220  33.0365480
  38.7413930  83.0441890  33.6348440  39.4371330  84.3884340  33.6060210
  45.2756280  80.5324760  28.5174100  45.6426410  80.0583330  29.2635440
  45.0861340  81.4066330  28.8582440  38.1396770  75.2768450  24.6467570
  37.8543690  74.9124120  25.4846190  38.0775630  74.5448910  24.0330710
  43.0655650  79.5733400  30.8358310  42.7612720  80.4525380  31.0608670
  44.0202110  79.6333190  30.8715750  41.5937440  83.7794390  21.4325160
  40.8199700  83.2392010  21.2723880  42.3232070  83.2601000  21.0942920
  52.3525420  82.7759750  27.2251550  53.0724540  83.2715040  26.8347660
  52.1507240  82.0977640  26.5805420  47.8135360  74.1697710  21.3680940
  46.9999970  73.6710880  21.2926250  47.6197310  75.0095960  20.9517290
  47.7344220  82.8468810  33.1120550  47.6681530  81.9264480  32.8578140
  47.1049360  82.9444250  33.8265190  50.5283750  78.5417360  19.6643100
  51.4163370  78.8534590  19.4894440  50.4988840  77.6689610  19.2723680
  41.6374840  83.4474770  25.0703970  42.1553510  82.6443030  25.0160860
  41.1858860  83.3853910  25.9120800  39.1219380  80.4136140  31.9829670
  38.7634320  81.0789990  32.5703010  38.8273940  79.5819690  32.3542290
  42.3232500  80.8720380  34.8669220  42.0232640  81.0177560  33.9697040
  43.0943740  80.3125670  34.7742610  52.7998020  79.8529200  19.1322960
  52.7161740  80.2843420  18.2819400  53.5192210  80.3127550  19.5649780
  53.8772160  82.3096720  32.2092930  53.1520350  82.9025500  32.0122320
  54.4047620  82.3020260  31.4106300  49.4071750  84.0356890  25.7076780
  49.7595570  83.4385020  25.0478150  48.5234080  83.7101120  25.8785030
  37.6327430  80.4127400  18.6064270  38.5022280  80.6952200  18.8900190
  37.1417750  81.2263270  18.4913080  44.7962240  81.8000610  22.7272550
  45.2525020  82.6105860  22.9532740  44.4450450  81.4823750  23.5591040
  40.6974020  72.1438260  23.1995070  40.5688650  72.1356160  24.1479990
  39.8736040  72.4821350  22.8486080  37.6967950  73.9029380  32.6601770
  36.9826470  74.1026300  33.2654380  38.1162990  73.1268950  33.0316570
  51.7998900  83.5159860  20.0595600  51.5120600  83.9772550  20.8473480
  52.5951070  83.0557630  20.3279820  39.6173940  82.2300870  20.7346330
  39.0101890  82.9699770  20.7441630  40.0923290  82.3200230  19.9084530
  49.1906730  76.3951690  30.4103220  49.5587550  75.5746900  30.7382790
  48.3304930  76.4553580  30.8258870  52.5568760  75.3508630  21.2190780
  51.9281920  75.4554300  20.5049010  52.0620680  75.5705410  22.0084660
  44.5252790  77.6294580  22.6348660  43.8168940  78.0980920  23.0762270
  44.8097270  76.9716590  23.2693850  46.1508720  79.0491280  30.6341190
  46.6493970  79.5237100  31.2993040  46.2931670  78.1254800  30.8411220
  48.5568220  74.3545240  24.0744450  48.4336000  74.3731370  23.1253960
  49.5052780  74.4024180  24.1942850  42.7287810  75.9379660  20.0099370
  43.5778340  76.3749810  19.9439560  42.3619080  76.2499920  20.8371430
  53.3575580  75.2659240  31.4769580  52.8549180  76.0064640  31.8163390
  54.1732240  75.6543240  31.1606370  51.6497590  80.5092420  24.9230940
  50.7087730  80.5242650  25.0978630  51.9641660  79.7228380  25.3691240
  41.6279230  82.1912020  18.4834900  42.3942500  82.0793380  19.0460330
  41.7053920  81.4949990  17.8311670  40.3225990  79.6237090  19.1667790
  40.4029580  78.6764600  19.2785190  41.2145740  79.9543970  19.2728450
  48.9663610  85.0658420  35.4063320  48.3601770  85.0890020  34.6659070
  48.6617720  84.3341460  35.9430570  37.8496790  81.4452010  34.4023960
  38.3535810  80.8659290  34.9740190  37.1104210  81.7292240  34.9400330
  44.7520410  84.1666200  17.9570250  44.6471050  83.5518550  18.6831630
  44.5844630  83.6432090  17.1733260  44.9034730  82.8523000  33.9359480
  44.1380400  83.4208000  33.8514150  45.0850690  82.5599210  33.0427710
  47.9923140  83.2286230  18.5612240  47.4433240  83.6755530  19.2054980
  48.6142400  82.7235480  19.0849910  52.0458080  84.5828330  34.4934500
  52.7867550  84.9204090  33.9901960  51.2830760  84.7520390  33.9404270
  39.8819870  79.5881600  35.2974030  39.9225210  79.2895470  36.2059260
  40.7365370  79.9889210  35.1381550  43.6598260  82.1877150  20.4577540
  44.0814680  82.0217020  21.3008930  43.7849100  81.3777380  19.9632680
  41.8225680  78.1673700  33.2648520  41.2922140  77.6764650  32.6371860
  42.4913750  78.5957900  32.7306450  46.1725900  81.2114760  17.7054640
  46.6931560  80.4963780  17.3395790  46.8194300  81.8500630  18.0055150
  50.7203740  82.6343160  33.0289710  51.1344760  82.7888240  33.8780130
  49.7854740  82.7598380  33.1915490  51.1925910  79.9739320  35.0328860
  51.7746680  79.2191640  34.9449340  51.3687680  80.5046760  34.2560340
  42.3097980  75.1336070  33.3445810  42.2154850  74.5156820  32.6196680
  41.7295370  75.8602360  33.1175720  45.0759420  73.6909310  30.3773200
  44.6276720  73.7133570  29.5318750  44.4424620  73.2928330  30.9743500
  45.4818970  82.5863640  30.9985640  45.9007080  83.4296370  30.8261880
  44.5627600  82.7235680  30.7692420  47.8182870  80.3179820  32.3823480
  47.9379080  79.7220960  33.1218320  48.6776870  80.3549510  31.9624780
  50.1570770  80.8717010  30.9585990  49.6305990  81.3959630  30.3551130
  50.5002110  81.5044400  31.5895720  42.5557160  78.2610380  17.4035700
  42.3546220  77.3977740  17.7649040  42.3849210  78.1743740  16.4657300
  44.5851640  76.8601170  33.6399300  45.1751330  76.5517020  34.3277120
  43.7671880  76.3880920  33.7959200  49.4045070  76.4766980  33.8732320
  48.7160590  75.8148520  33.8082310  50.1251090  76.0305250  34.3180780
  50.0345470  73.0718610  19.9322580  50.3147760  72.2286510  20.2882000
  49.2611200  73.3041720  20.4461330  41.3539960  75.3611000  17.3913580
  41.6565860  75.3678430  16.4832730  42.0934550  75.0108860  17.8881240
  44.5724890  74.3045620  18.3769780  44.2246890  73.6269610  17.7972230
  44.7737660  73.8435130  19.1913170  54.4126190  82.3095340  20.5426490
  55.1745100  82.8791990  20.6486180  54.4280560  81.7422540  21.3134800
  37.9130530  80.8333270  24.7734150  37.2579370  80.5644910  24.1293850
  38.7508480  80.7237750  24.3236130  55.4186160  83.1645440  25.3868420
  55.7894990  82.3812760  24.9804390  56.0588090  83.8534540  25.2085720
  54.4645360  82.6029710  17.6999010  54.7394200  83.5108590  17.5718230
  54.2756100  82.5392240  18.6361000  50.8620970  75.6274560  18.9952640
  51.2805850  75.4405540  18.1549300  50.5557030  74.7753610  19.3055570
  54.3610700  80.5398700  22.6928440  53.9854300  79.7726630  22.2609730
  53.6313820  80.9221400  23.1803370  38.9506460  81.2185840  29.3137490
  39.3179500  81.1313240  30.1933510  38.3817280  80.4552390  29.2144350
  53.7510320  79.6870220  32.3267960  53.5196410  79.4582970  31.4265910
  54.0114870  80.6069770  32.2812850  38.5022460  78.1294930  33.2195910
  37.6078510  78.0961690  33.5589620  39.0420010  78.3281720  33.9847160
  52.1898390  74.9126650  35.1047660  53.0668570  74.9210050  35.4881660
  52.2019230  74.1757490  34.4940010  37.1268610  78.0432200  20.7159480
  36.2232690  78.3062400  20.5411140  37.6109230  78.3143370  19.9359440
  53.6361660  78.7656190  25.9935680  54.1599140  78.2718840  25.3625850
  54.2221080  78.9006550  26.7383250  53.8151380  78.8496060  29.5155230
  52.8654090  78.8159600  29.6300220  53.9964390  79.7596170  29.2805000
  39.6695820  77.0997740  18.6253860  40.3787520  76.6780960  18.1401140
  38.9535760  77.1672970  17.9937210  39.3169980  73.1537070  17.6656510
  40.0398110  73.6946010  17.9837730  39.5894500  72.8800490  16.7898050
  53.1261630  78.0229540  21.9328090  53.6220750  77.7900410  22.7176970
  52.9277700  77.1841380  21.5165730  39.0062170  72.4043260  27.5679130
  39.6538360  71.8540640  27.1274290  39.4264010  72.6586410  28.3894940
  54.5548790  76.6590490  24.4665770  54.4448070  76.5046530  25.4048040
  55.3156380  76.1311430  24.2241180  52.9014510  72.5984620  30.9248770
  53.5386730  73.2118760  31.2907960  53.0489400  72.6345280  29.9798000
  55.4439060  74.4898410  17.7071910  56.3688370  74.3579590  17.4990200
  55.4214850  74.5691230  18.6608360  55.5177550  75.2609070  20.3328620
  54.7229050  75.1954190  20.8621530  55.7220830  76.1959710  20.3213970
  38.7594170  72.5598930  30.3104450  38.4108990  73.0162750  31.0762630
  38.4281870  71.6656060  30.3926880  46.2718990  73.7510810  33.8323870
  46.2107880  74.3432640  34.5819280  47.2119370  73.6436770  33.6874130
  48.9093550  73.4080870  33.4716160  49.5233960  73.7260160  32.8097240
  49.4543110  72.9229460  34.0912020  39.4314810  72.0875130  33.5855220
  39.9797800  71.9063180  32.8221330  39.4970120  71.2969240  34.1211530
  49.6501590  71.9713010  29.7985450  48.7761430  72.3048120  29.5958380
  49.5412340  71.4986190  30.6237320  50.5573570  74.1783880  31.1827170
  50.2286930  73.3635640  30.8028900  51.5055870  74.1353690  31.0592860
  47.3976410  72.8882850  28.7378360  46.6148200  73.3628350  29.0175120
  47.1039340  71.9837680  28.6291540  51.9497480  73.5905950  26.7827450
  52.3905570  73.5351050  25.9349050  51.6805070  74.5063960  26.8537630
  53.8136050  73.2221190  24.7936270  53.7524450  72.2782410  24.6467290
  54.5928080  73.3301280  25.3389730  38.7416820  73.1930330  21.2592080
  39.4996180  73.3059210  20.6856110  38.2793990  74.0299530  21.2135510
  45.2830630  75.3069600  24.2494390  44.4705140  74.9326490  23.9090270
  45.7872270  74.5514680  24.5515580  49.7855610  71.9712050  25.4877460
  50.3884980  72.5432260  25.9625980  49.0448600  72.5351490  25.2651360
  52.9290210  72.3733610  20.7617740  53.1240840  73.2717060  21.0285170
  52.1420080  72.1420690  21.2550690  41.1141970  73.7194380  19.7994050
  41.6434730  72.9324180  19.6702000  41.7470290  74.3985570  20.0329580
  43.3079810  73.4569520  22.8539440  42.6782550  72.7556830  23.0209570
  42.7684950  74.2173650  22.6372600  43.4335370  72.7353500  35.2891930
  43.1519640  73.2387100  34.5252750  43.8155070  71.9375250  34.9234060
  50.0350830  72.1507080  35.8672400  49.9216280  72.4701690  36.7623920
  50.8520570  72.5519590  35.5709680  48.9408980  80.1699550   6.2307140
  48.8603030  79.2554160   5.9598850  48.5273400  80.6666620   5.5246850
  47.0727020  81.9478570   8.1116410  46.2969120  81.4679010   8.4014980
  47.7239950  81.2684220   7.9372570  41.0892850  82.2598380   8.9892170
  40.2577730  82.0047090   9.3888680  41.6973830  82.3309150   9.7250090
  39.4984800  77.2200270   2.7734560  38.6101500  77.5616240   2.6714440
  39.7825990  77.0200590   1.8815390  37.4617810  79.8205920   8.6574260
  38.0333920  79.0528120   8.6577900  37.4619350  80.1194680   7.7480870
  46.5136010  84.6235760   8.1186570  46.4444290  83.6825700   7.9575700
  47.2755870  84.7137170   8.6909140  38.7042680  75.2290280  10.4443190
  38.5245520  74.3316030  10.7245950  38.3022760  75.7762150  11.1190140
  47.5441180  77.4306140   8.3455500  47.9206000  76.5578020   8.2329170
  47.4460690  77.7664840   7.4545940  41.6746190  75.8031770   3.8072940
  41.7812940  76.7035500   4.1141700  40.7638550  75.7549740   3.5167590
  51.3265300  74.9256580   5.2783840  52.1474920  74.4353150   5.3209320
  51.3599380  75.5154240   6.0315680  39.3229350  77.7250780   9.0525530
  40.0039460  77.9889150   9.6712930  39.0077400  76.8851650   9.3863540
  43.5153920  78.7718140   8.1398120  44.0232140  79.2699110   8.7803140
  44.0467160  77.9953340   7.9637480  55.6164850  76.9423330  11.8427470
  54.9117020  77.3305040  11.3242580  55.8822770  77.6373620  12.4448400
  41.7990020  73.4116700  12.4061540  41.8008460  73.9289090  11.6007440
  40.9694330  72.9346880  12.3831470  48.1861110  83.5236010   3.9051440
  47.5678380  83.9885460   3.3414160  48.6984360  84.2163490   4.3220950
  43.0492870  83.0511880  10.5835040  42.7162250  83.6780800  11.2256110
  43.2259550  83.5773760   9.8036710  51.5626780  76.8656960   8.0511380
  50.8582350  77.1541850   8.6314490  51.9238940  77.6757070   7.6910940
  41.4805350  75.1226660  10.4131990  41.8222160  75.9668710  10.1185860
  40.5421160  75.2710400  10.5297330  54.6313700  76.3111750   8.4420590
  53.6838610  76.3450730   8.5736020  54.9563690  77.1250700   8.8269950
  45.1633240  72.6108930   6.7376580  45.4708220  72.0555820   6.0212080
  44.2333940  72.7453390   6.5549570  50.1133740  83.2306060  10.3566650
  50.5302530  83.0166170   9.5220110  50.8373560  83.4878850  10.9275270
  47.5514000  80.6757760   3.4736700  46.6243280  80.6095140   3.7025170
  47.7038820  81.6137890   3.3591940  54.0595840  81.6293280  10.4482890
  53.2314470  81.6986370   9.9733020  54.6546320  82.2147590   9.9798720
  51.5811290  82.2378060   3.9771950  50.9623710  81.8997610   3.3298250
  51.5635740  81.5937820   4.6851140  51.0237850  78.4162600  11.3937760
  50.6109030  79.2416310  11.6477750  50.2913800  77.8307640  11.2014120
  43.1570640  81.2022500   6.2556430  42.7527640  80.4899750   5.7602330
  43.2433760  80.8575740   7.1444470  43.6252340  84.8890060   8.4195640
  43.3280630  84.2835530   7.7403420  44.5752160  84.9267370   8.3085000
  41.8699260  77.9765710  10.0355470  42.4213850  78.0861050   9.2608720
  42.3842770  78.3503310  10.7510700  42.7170770  84.6271750  15.0703440
  41.8199300  84.8511720  15.3176840  42.7423640  84.7506690  14.1214840
  41.5441990  81.4985070  13.6460810  41.4049760  82.3707870  14.0148210
  40.6623350  81.1557880  13.5008750  39.8575270  80.0967480   3.7563080
  39.7372870  80.8229570   3.1444350  39.5476160  79.3270390   3.2790990
  37.4960640  83.2682620   9.5631720  37.5741060  83.4031390   8.6187440
  38.1102320  82.5598510   9.7559840  54.5494420  77.4679180  15.2759880
  53.9338690  77.9758850  14.7475340  54.2290840  76.5677510  15.2185820
  37.5520160  84.3096790  12.1026180  37.7151200  83.8402150  11.2845550
  38.0172610  83.8020350  12.7675020  42.3238930  73.4402550   7.1386750
  41.8807080  74.2212090   6.8071270  42.8823920  73.7632440   7.8457690
  46.6108740  76.3071070  12.7422070  46.1488110  76.5154090  13.5542010
  46.2086850  75.4930420  12.4392740  51.6113250  77.5280020  13.8718730
  50.7606840  77.2285770  14.1927800  51.4515040  77.7722030  12.9602550
  48.7062960  79.0281770  15.9717520  49.0316370  78.1945520  15.6319750
  49.4943290  79.5510290  16.1195850  44.3614830  73.9849880   8.9976350
  44.6587160  74.8912710   8.9168370  44.9100390  73.4968660   8.3835920
  42.1153150  78.5636120   4.8668000  41.8894070  78.3473290   5.7714620
  41.3345680  78.9964580   4.5213970  49.3450910  78.5699490   3.4658650
  48.7459800  79.2935290   3.2822270  49.8930520  78.5076270   2.6835100
  44.5552360  79.4621700  15.5328270  44.4595960  78.5216430  15.3828670
  45.3984340  79.6836770  15.1376340  47.9515780  77.2063030   5.4961930
  48.3445350  77.5235230   4.6830620  48.3132630  76.3274910   5.6106450
  39.6862900  75.8735370  13.6862050  39.2926290  76.7210580  13.8934830
  38.9981300  75.2361740  13.8770690  46.2607950  75.9570340  16.7558790
  45.5706270  75.7642540  17.3904880  47.0040250  76.2404980  17.2883090
  36.9879950  73.7963830   7.7192130  36.6993000  74.3666690   8.4317110
  37.7325710  73.3168280   8.0823360  48.5370920  79.7968780   9.5912710
  47.8052040  80.3055590   9.9402810  48.1395260  78.9798760   9.2901490
  44.9748310  76.4722980   7.9965200  44.9784370  76.0312930   7.1469740
  45.8699430  76.7940310   8.1037020  40.8250690  76.3549470   6.9559410
  40.4850740  76.8324700   7.7126460  40.0628010  75.9014590   6.5960510
  48.9996830  75.2502460   9.0035650  49.0169570  75.7011110   9.8477500
  48.7512410  74.3508100   9.2169090  52.4267580  72.6634640  14.8422030
  52.7513350  71.9324300  15.3680010  52.4624090  72.3448280  13.9403020
  39.1259140  83.6848220  14.2621990  38.7413930  83.0441890  14.8604950
  39.4371330  84.3884340  14.8316720  45.2756280  80.5324760   9.7430610
  45.6426410  80.0583330  10.4891950  45.0861340  81.4066330  10.0838950
  38.1396770  75.2768450   5.8724080  37.8543690  74.9124120   6.7102700
  38.0775630  74.5448910   5.2587220  43.0655650  79.5733400  12.0614820
  42.7612720  80.4525380  12.2865180  44.0202110  79.6333190  12.0972260
  41.5937440  83.7794390   2.6581670  40.8199700  83.2392010   2.4980390
  42.3232070  83.2601000   2.3199430  52.3525420  82.7759750   8.4508060
  53.0724540  83.2715040   8.0604170  52.1507240  82.0977640   7.8061930
  47.8135360  74.1697710   2.5937450  46.9999970  73.6710880   2.5182760
  47.6197310  75.0095960   2.1773800  47.7344220  82.8468810  14.3377060
  47.6681530  81.9264480  14.0834650  47.1049360  82.9444250  15.0521700
  41.6374840  83.4474770   6.2960480  42.1553510  82.6443030   6.2417370
  41.1858860  83.3853910   7.1377310  39.1219380  80.4136140  13.2086180
  38.7634320  81.0789990  13.7959520  38.8273940  79.5819690  13.5798800
  42.3232500  80.8720380  16.0925730  42.0232640  81.0177560  15.1953550
  43.0943740  80.3125670  15.9999120  53.8772160  82.3096720  13.4349440
  53.1520350  82.9025500  13.2378830  54.4047620  82.3020260  12.6362810
  49.4071750  84.0356890   6.9333290  49.7595570  83.4385020   6.2734660
  48.5234080  83.7101120   7.1041540  44.7962240  81.8000610   3.9529060
  45.2525020  82.6105860   4.1789250  44.4450450  81.4823750   4.7847550
  40.6974020  72.1438260   4.4251580  40.5688650  72.1356160   5.3736500
  39.8736040  72.4821350   4.0742590  37.6967950  73.9029380  13.8858280
  36.9826470  74.1026300  14.4910890  38.1162990  73.1268950  14.2573080
  49.1906730  76.3951690  11.6359730  49.5587550  75.5746900  11.9639300
  48.3304930  76.4553580  12.0515380  52.5568760  75.3508630   2.4447290
  51.9281920  75.4554300   1.7305520  52.0620680  75.5705410   3.2341170
  44.5252790  77.6294580   3.8605170  43.8168940  78.0980920   4.3018780
  44.8097270  76.9716590   4.4950360  46.1508720  79.0491280  11.8597700
  46.6493970  79.5237100  12.5249550  46.2931670  78.1254800  12.0667730
  48.5568220  74.3545240   5.3000960  48.4336000  74.3731370   4.3510470
  49.5052780  74.4024180   5.4199360  53.3575580  75.2659240  12.7026090
  52.8549180  76.0064640  13.0419900  54.1732240  75.6543240  12.3862880
  51.6497590  80.5092420   6.1487450  50.7087730  80.5242650   6.3235140
  51.9641660  79.7228380   6.5947750  48.9663610  85.0658420  16.6319830
  48.3601770  85.0890020  15.8915580  48.6617720  84.3341460  17.1687080
  37.8496790  81.4452010  15.6280470  38.3535810  80.8659290  16.1996700
  37.1104210  81.7292240  16.1656840  44.9034730  82.8523000  15.1615990
  44.1380400  83.4208000  15.0770660  45.0850690  82.5599210  14.2684220
  52.0458080  84.5828330  15.7191010  52.7867550  84.9204090  15.2158470
  51.2830760  84.7520390  15.1660780  39.8819870  79.5881600  16.5230540
  39.9225210  79.2895470  17.4315770  40.7365370  79.9889210  16.3638060
  41.8225680  78.1673700  14.4905030  41.2922140  77.6764650  13.8628370
  42.4913750  78.5957900  13.9562960  50.7203740  82.6343160  14.2546220
  51.1344760  82.7888240  15.1036640  49.7854740  82.7598380  14.4172000
  51.1925910  79.9739320  16.2585370  51.7746680  79.2191640  16.1705850
  51.3687680  80.5046760  15.4816850  42.3097980  75.1336070  14.5702320
  42.2154850  74.5156820  13.8453190  41.7295370  75.8602360  14.3432230
  45.0759420  73.6909310  11.6029710  44.6276720  73.7133570  10.7575260
  44.4424620  73.2928330  12.2000010  45.4818970  82.5863640  12.2242150
  45.9007080  83.4296370  12.0518390  44.5627600  82.7235680  11.9948930
  47.8182870  80.3179820  13.6079990  47.9379080  79.7220960  14.3474830
  48.6776870  80.3549510  13.1881290  50.1570770  80.8717010  12.1842500
  49.6305990  81.3959630  11.5807640  50.5002110  81.5044400  12.8152230
  44.5851640  76.8601170  14.8655810  45.1751330  76.5517020  15.5533630
  43.7671880  76.3880920  15.0215710  49.4045070  76.4766980  15.0988830
  48.7160590  75.8148520  15.0338820  50.1251090  76.0305250  15.5437290
  54.4126190  82.3095340   1.7683000  55.1745100  82.8791990   1.8742690
  54.4280560  81.7422540   2.5391310  37.9130530  80.8333270   5.9990660
  37.2579370  80.5644910   5.3550360  38.7508480  80.7237750   5.5492640
  55.4186160  83.1645440   6.6124930  55.7894990  82.3812760   6.2060900
  56.0588090  83.8534540   6.4342230  54.3610700  80.5398700   3.9184950
  53.9854300  79.7726630   3.4866240  53.6313820  80.9221400   4.4059880
  38.9506460  81.2185840  10.5394000  39.3179500  81.1313240  11.4190020
  38.3817280  80.4552390  10.4400860  53.7510320  79.6870220  13.5524470
  53.5196410  79.4582970  12.6522420  54.0114870  80.6069770  13.5069360
  38.5022460  78.1294930  14.4452420  37.6078510  78.0961690  14.7846130
  39.0420010  78.3281720  15.2103670  52.1898390  74.9126650  16.3304170
  53.0668570  74.9210050  16.7138170  52.2019230  74.1757490  15.7196520
  53.6361660  78.7656190   7.2192190  54.1599140  78.2718840   6.5882360
  54.2221080  78.9006550   7.9639760  53.8151380  78.8496060  10.7411740
  52.8654090  78.8159600  10.8556730  53.9964390  79.7596170  10.5061510
  53.1261630  78.0229540   3.1584600  53.6220750  77.7900410   3.9433480
  52.9277700  77.1841380   2.7422240  39.0062170  72.4043260   8.7935640
  39.6538360  71.8540640   8.3530800  39.4264010  72.6586410   9.6151450
  54.5548790  76.6590490   5.6922280  54.4448070  76.5046530   6.6304550
  55.3156380  76.1311430   5.4497690  52.9014510  72.5984620  12.1505280
  53.5386730  73.2118760  12.5164470  53.0489400  72.6345280  11.2054510
  38.7594170  72.5598930  11.5360960  38.4108990  73.0162750  12.3019140
  38.4281870  71.6656060  11.6183390  46.2718990  73.7510810  15.0580380
  46.2107880  74.3432640  15.8075790  47.2119370  73.6436770  14.9130640
  48.9093550  73.4080870  14.6972670  49.5233960  73.7260160  14.0353750
  49.4543110  72.9229460  15.3168530  39.4314810  72.0875130  14.8111730
  39.9797800  71.9063180  14.0477840  39.4970120  71.2969240  15.3468040
  49.6501590  71.9713010  11.0241960  48.7761430  72.3048120  10.8214890
  49.5412340  71.4986190  11.8493830  50.5573570  74.1783880  12.4083680
  50.2286930  73.3635640  12.0285410  51.5055870  74.1353690  12.2849370
  47.3976410  72.8882850   9.9634870  46.6148200  73.3628350  10.2431630
  47.1039340  71.9837680   9.8548050  51.9497480  73.5905950   8.0083960
  52.3905570  73.5351050   7.1605560  51.6805070  74.5063960   8.0794140
  53.8136050  73.2221190   6.0192780  53.7524450  72.2782410   5.8723800
  54.5928080  73.3301280   6.5646240  38.7416820  73.1930330   2.4848590
  39.4996180  73.3059210   1.9112620  38.2793990  74.0299530   2.4392020
  45.2830630  75.3069600   5.4750900  44.4705140  74.9326490   5.1346780
  45.7872270  74.5514680   5.7772090  49.7855610  71.9712050   6.7133970
  50.3884980  72.5432260   7.1882490  49.0448600  72.5351490   6.4907870
  52.9290210  72.3733610   1.9874250  53.1240840  73.2717060   2.2541680
  52.1420080  72.1420690   2.4807200  43.3079810  73.4569520   4.0795950
  42.6782550  72.7556830   4.2466080  42.7684950  74.2173650   3.8629110
  43.4335370  72.7353500  16.5148440  43.1519640  73.2387100  15.7509260
  43.8155070  71.9375250  16.1490570  50.0350830  72.1507080  17.0928910
  49.9216280  72.4701690  17.9880430  50.8520570  72.5519590  16.7966190
  48.9408980  61.3956060  81.3281100  48.8603030  60.4810670  81.0572810
  48.5273400  61.8923130  80.6220810  47.0727020  63.1735080  83.2090370
  46.2969120  62.6935520  83.4988940  47.7239950  62.4940730  83.0346530
  41.0892850  63.4854890  84.0866130  40.2577730  63.2303600  84.4862640
  41.6973830  63.5565660  84.8224050  51.0934450  67.5795270  81.9889500
  50.6315980  66.8082510  82.3176670  51.9060000  67.6061340  82.4941950
  41.0694110  67.5194980  84.2824150  41.3722150  66.6292720  84.1034370
  41.8137700  68.0765200  84.0546400  39.4984800  58.4456780  77.8708520
  38.6101500  58.7872750  77.7688400  39.7825990  58.2457100  76.9789350
  37.4617810  61.0462430  83.7548220  38.0333920  60.2784630  83.7551860
  37.4619350  61.3451190  82.8454830  47.3197760  69.8653280  81.6093490
  46.7009200  70.3210780  81.0387930  48.1749540  70.0204740  81.2083190
  46.5136010  65.8492270  83.2160530  46.4444290  64.9082210  83.0549660
  47.2755870  65.9393680  83.7883100  38.7042680  56.4546790  85.5417150
  38.5245520  55.5572540  85.8219910  38.3022760  57.0018660  86.2164100
  47.5441180  58.6562650  83.4429460  47.9206000  57.7834530  83.3303130
  47.4460690  58.9921350  82.5519900  41.6746190  57.0288280  78.9046900
  41.7812940  57.9292010  79.2115660  40.7638550  56.9806250  78.6141550
  51.3265300  56.1513090  80.3757800  52.1474920  55.6609660  80.4183280
  51.3599380  56.7410750  81.1289640  39.3229350  58.9507290  84.1499490
  40.0039460  59.2145660  84.7686890  39.0077400  58.1108160  84.4837500
  43.5153920  59.9974650  83.2372080  44.0232140  60.4955620  83.8777100
  44.0467160  59.2209850  83.0611440  55.6164850  58.1679840  86.9401430
  54.9117020  58.5561550  86.4216540  55.8822770  58.8630130  87.5422360
  41.7990020  54.6373210  87.5035500  41.8008460  55.1545600  86.6981400
  40.9694330  54.1603390  87.4805430  48.1861110  64.7492520  79.0025400
  47.5678380  65.2141970  78.4388120  48.6984360  65.4420000  79.4194910
  43.0492870  64.2768390  85.6809000  42.7162250  64.9037310  86.3230070
  43.2259550  64.8030270  84.9010670  51.5626780  58.0913470  83.1485340
  50.8582350  58.3798360  83.7288450  51.9238940  58.9013580  82.7884900
  41.4805350  56.3483170  85.5105950  41.8222160  57.1925220  85.2159820
  40.5421160  56.4966910  85.6271290  42.2611970  66.2449190  87.4958180
  42.8785970  66.9200270  87.2142630  41.4005090  66.6537170  87.4045680
  37.5544310  65.4349050  76.3765030  37.1772290  65.9236150  75.6449930
  37.8117380  66.1074330  77.0071560  53.1789560  67.7088600  85.4112820
  52.4953080  68.3787710  85.4029490  53.7183850  67.9069250  84.6457680
  54.6313700  57.5368260  83.5394550  53.6838610  57.5707240  83.6709980
  54.9563690  58.3507210  83.9243910  45.1633240  53.8365440  81.8350540
  45.4708220  53.2812330  81.1186040  44.2333940  53.9709900  81.6523530
  50.7148300  69.5532730  84.1258000  50.7275460  69.1495020  83.2580260
  50.1623520  70.3280020  84.0219430  52.0093720  66.2748950  79.2148170
  51.8990050  65.3323280  79.3397590  52.0061970  66.6364590  80.1010930
  50.1133740  64.4562570  85.4540610  50.5302530  64.2422680  84.6194070
  50.8373560  64.7135360  86.0249230  47.5514000  61.9014270  78.5710660
  46.6243280  61.8351650  78.7999130  47.7038820  62.8394400  78.4565900
  47.5383080  58.1731270  75.5677820  46.5986750  58.3345230  75.6530280
  47.8566340  58.8916950  75.0213810  54.0595840  62.8549790  85.5456850
  53.2314470  62.9242880  85.0706980  54.6546320  63.4404100  85.0772680
  51.5811290  63.4634570  79.0745910  50.9623710  63.1254120  78.4272210
  51.5635740  62.8194330  79.7825100  51.0237850  59.6419110  86.4911720
  50.6109030  60.4672820  86.7451710  50.2913800  59.0564150  86.2988080
  43.1570640  62.4279010  81.3530390  42.7527640  61.7156260  80.8576290
  43.2433760  62.0832250  82.2418430  43.6252340  66.1146570  83.5169600
  43.3280630  65.5092040  82.8377380  44.5752160  66.1523880  83.4058960
  41.8699260  59.2022220  85.1329430  42.4213850  59.3117560  84.3582680
  42.3842770  59.5759820  85.8484660  51.7137950  69.6878440  87.1792700
  51.2368510  70.4950630  86.9865310  51.0299740  69.0356770  87.3318910
  49.7575990  62.7021380  76.0818660  50.1969270  61.8643810  75.9356480
  50.4704410  63.3350780  76.1682800  41.5441990  62.7241580  88.7434770
  41.4049760  63.5964380  89.1122170  40.6623350  62.3814390  88.5982710
  47.8671370  67.6417450  80.0499900  48.3067280  68.3841780  79.6355290
  47.8058260  67.8844020  80.9738860  53.3393130  53.9564190  74.3959700
  53.0265790  54.0491020  75.2958770  54.1005600  54.5345220  74.3457130
  39.8575270  61.3223990  78.8537040  39.7372870  62.0486080  78.2418310
  39.5476160  60.5526900  78.3764950  37.4960640  64.4939130  84.6605680
  37.5741060  64.6287900  83.7161400  38.1102320  63.7855020  84.8533800
  38.7408270  66.1939320  81.0711860  38.3336350  66.3353910  80.2165460
  39.6321280  65.9099480  80.8683070  48.5587150  70.3431230  87.9778910
  49.0731820  70.2539240  88.7801340  47.7156230  70.6890930  88.2706820
  50.5341550  70.6286570  77.4062910  50.3742690  70.3389510  78.3044740
  50.3688260  69.8526700  76.8708140  43.0129930  70.4085100  79.1834530
  42.8372410  69.4920640  78.9702330  42.1585670  70.7672390  79.4232330
  50.2367680  68.1374130  75.9660910  49.5432840  68.1351420  75.3063190
  50.9790540  67.7133450  75.5355080  49.8017610  69.7636840  80.0409400
  50.2574560  68.9826220  80.3548020  50.1410130  70.4743660  80.5850580
  37.5520160  65.5353300  87.2000140  37.7151200  65.0658660  86.3819510
  38.0172610  65.0276860  87.8648980  42.3238930  54.6659060  82.2360710
  41.8807080  55.4468600  81.9045230  42.8823920  54.9888950  82.9431650
  46.6108740  57.5327580  87.8396030  46.1488110  57.7410600  88.6515970
  46.2086850  56.7186930  87.5366700  45.4397750  54.2869760  77.1166540
  44.8151930  54.2829630  77.8419850  45.3527870  53.4200720  76.7202510
  44.3614830  55.2106390  84.0950310  44.6587160  56.1169220  84.0142330
  44.9100390  54.7225170  83.4809880  42.1153150  59.7892630  79.9641960
  41.8894070  59.5729800  80.8688580  41.3345680  60.2221090  79.6187930
  49.3450910  59.7956000  78.5632610  48.7459800  60.5191800  78.3796230
  49.8930520  59.7332780  77.7809060  47.9515780  58.4319540  80.5935890
  48.3445350  58.7491740  79.7804580  48.3132630  57.5531420  80.7080410
  39.6862900  57.0991880  88.7836010  39.2926290  57.9467090  88.9908790
  38.9981300  56.4618250  88.9744650  36.9879950  55.0220340  82.8166090
  36.6993000  55.5923200  83.5291070  37.7325710  54.5424790  83.1797320
  37.1750180  58.9640460  74.0268810  37.0924850  59.9071220  74.1683800
  36.8233240  58.8215370  73.1481160  48.5370920  61.0225290  84.6886670
  47.8052040  61.5312100  85.0376770  48.1395260  60.2055270  84.3875450
  44.9748310  57.6979490  83.0939160  44.9784370  57.2569440  82.2443700
  45.8699430  58.0196820  83.2010980  40.8250690  57.5805980  82.0533370
  40.4850740  58.0581210  82.8100420  40.0628010  57.1271100  81.6934470
  45.0368460  58.6991570  76.0845920  45.1581280  58.6578050  77.0331740
  44.6516970  59.5615720  75.9292650  48.9996830  56.4758970  84.1009610
  49.0169570  56.9267620  84.9451460  48.7512410  55.5764610  84.3143050
  44.0489960  61.0092710  75.4829220  43.4806860  60.5610960  74.8565130
  44.7578960  61.3685490  74.9494370  45.2756280  61.7581270  84.8404570
  45.6426410  61.2839840  85.5865910  45.0861340  62.6322840  85.1812910
  38.1396770  56.5024960  80.9698040  37.8543690  56.1380630  81.8076660
  38.0775630  55.7705420  80.3561180  43.0655650  60.7989910  87.1588780
  42.7612720  61.6781890  87.3839140  44.0202110  60.8589700  87.1946220
  41.5937440  65.0050900  77.7555630  40.8199700  64.4648520  77.5954350
  42.3232070  64.4857510  77.4173390  52.3525420  64.0016260  83.5482020
  53.0724540  64.4971550  83.1578130  52.1507240  63.3234150  82.9035890
  47.8135360  55.3954220  77.6911410  46.9999970  54.8967390  77.6156720
  47.6197310  56.2352470  77.2747760  50.5283750  59.7673870  75.9873570
  51.4163370  60.0791100  75.8124910  50.4988840  58.8946120  75.5954150
  41.6374840  64.6731280  81.3934440  42.1553510  63.8699540  81.3391330
  41.1858860  64.6110420  82.2351270  46.5244340  65.9397560  76.6661740
  46.8660040  66.6839790  76.1705060  45.6957050  66.2528680  77.0286570
  39.1219380  61.6392650  88.3060140  38.7634320  62.3046500  88.8933480
  38.8273940  60.8076200  88.6772760  52.7998020  61.0785710  75.4553430
  52.7161740  61.5099930  74.6049870  53.5192210  61.5384060  75.8880250
  53.8772160  63.5353230  88.5323400  53.1520350  64.1282010  88.3352790
  54.4047620  63.5276770  87.7336770  53.8285270  67.9327970  78.1835560
  53.1861430  67.2783590  78.4579280  53.4415930  68.3383060  77.4076230
  49.4071750  65.2613400  82.0307250  49.7595570  64.6641530  81.3708620
  48.5234080  64.9357630  82.2015500  45.4935030  66.0211090  79.4377660
  46.1806160  66.5680300  79.8185250  44.7067450  66.5651820  79.4727270
  37.6327430  61.6383910  74.9294740  38.5022280  61.9208710  75.2130660
  37.1417750  62.4519780  74.8143550  44.7962240  63.0257120  79.0503020
  45.2525020  63.8362370  79.2763210  44.4450450  62.7080260  79.8821510
  47.0994850  68.5363460  86.2795320  47.7437070  68.7422840  86.9568740
  47.4624290  67.7751860  85.8266170  40.6974020  53.3694770  79.5225540
  40.5688650  53.3612670  80.4710460  39.8736040  53.7077860  79.1716550
  48.3726930  66.5395810  84.9972770  49.0149160  65.8388970  85.1104940
  48.8976280  67.3194250  84.8169660  52.2182650  66.8244430  74.7211910
  51.9920230  66.1074870  75.3136550  51.8278850  66.5756870  73.8833660
  50.1464550  67.3390710  88.2008830  50.4820790  67.9257400  88.8786750
  49.2264890  67.2083420  88.4306620  37.9998680  70.8511290  75.4956370
  38.3596320  71.4500630  74.8413640  37.8591020  71.3971180  76.2691400
  51.7998900  64.7416370  76.3826070  51.5120600  65.2029060  77.1703950
  52.5951070  64.2814140  76.6510290  44.0167300  68.2342490  76.3130040
  44.0077400  68.9672180  75.6974550  43.0965660  67.9874070  76.4057000
  39.6173940  63.4557380  77.0576800  39.0101890  64.1956280  77.0672100
  40.0923290  63.5456740  76.2315000  49.1906730  57.6208200  86.7333690
  49.5587550  56.8003410  87.0613260  48.3304930  57.6810090  87.1489340
  52.5568760  56.5765140  77.5421250  51.9281920  56.6810810  76.8279480
  52.0620680  56.7961920  78.3315130  47.0026900  68.2970730  74.9755230
  47.1038880  68.0934720  74.0457210  46.1028640  68.0429010  75.1803010
  44.5252790  58.8551090  78.9579130  43.8168940  59.3237430  79.3992740
  44.8097270  58.1973100  79.5924320  46.1508720  60.2747790  86.9571660
  46.6493970  60.7493610  87.6223510  46.2931670  59.3511310  87.1641690
  48.5568220  55.5801750  80.3974920  48.4336000  55.5987880  79.4484430
  49.5052780  55.6280690  80.5173320  45.6445010  70.8157050  79.6702900
  45.8986510  70.7778440  78.7482270  44.6957490  70.6890380  79.6631150
  42.7287810  57.1636170  76.3329840  43.5778340  57.6006320  76.2670030
  42.3619080  57.4756430  77.1601900  53.3575580  56.4915750  87.8000050
  52.8549180  57.2321150  88.1393860  54.1732240  56.8799750  87.4836840
  51.6497590  61.7348930  81.2461410  50.7087730  61.7499160  81.4209100
  51.9641660  60.9484890  81.6921710  41.6279230  63.4168530  74.8065370
  42.3942500  63.3049890  75.3690800  41.7053920  62.7206500  74.1542140
  40.3225990  60.8493600  75.4898260  40.4029580  59.9021110  75.6015660
  41.2145740  61.1800480  75.5958920  53.6523170  68.9057780  82.9215670
  53.7770590  69.7288950  83.3939480  54.5188730  68.6948510  82.5739820
  41.1240700  70.9988990  82.5932800  41.8603180  70.4504450  82.8641370
  41.5081620  71.8645000  82.4538790  38.0086180  67.0662560  78.4674310
  37.0825960  67.3083700  78.4579720  38.4742610  67.8936820  78.3459060
  44.2343010  70.1719300  74.4158370  45.0271620  70.4608130  73.9640160
  43.7147360  69.7411470  73.7370850  53.2873180  69.3989430  75.8395110
  53.0014690  68.9854570  75.0249290  53.0892730  70.3277140  75.7195630
  44.7520410  65.3922710  74.2800720  44.6471050  64.7775060  75.0062100
  44.5844630  64.8688600  73.4963730  47.9923140  64.4542740  74.8842710
  47.4433240  64.9012040  75.5285450  48.6142400  63.9491990  75.4080380
  43.6598260  63.4133660  76.7808010  44.0814680  63.2473530  77.6239400
  43.7849100  62.6033890  76.2863150  46.1725900  62.4371270  74.0285110
  46.6931560  61.7220290  73.6626260  46.8194300  63.0757140  74.3285620
  45.0759420  54.9165820  86.7003670  44.6276720  54.9390080  85.8549220
  44.4424620  54.5184840  87.2973970  45.4818970  63.8120150  87.3216110
  45.9007080  64.6552880  87.1492350  44.5627600  63.9492190  87.0922890
  50.1570770  62.0973520  87.2816460  49.6305990  62.6216140  86.6781600
  50.5002110  62.7300910  87.9126190  42.5557160  59.4866890  73.7266170
  42.3546220  58.6234250  74.0879510  42.3849210  59.4000250  72.7887770
  43.3326390  70.1173160  88.4373840  42.7947480  70.8419220  88.1182540
  43.5860350  69.6403500  87.6471180  50.0345470  54.2975120  76.2553050
  50.3147760  53.4543020  76.6112470  49.2611200  54.5298230  76.7691800
  41.3539960  56.5867510  73.7144050  41.6565860  56.5934940  72.8063200
  42.0934550  56.2365370  74.2111710  46.1888600  71.3524370  88.6960490
  46.1147300  72.2559510  89.0032860  45.2867440  71.0336270  88.6682560
  44.5724890  55.5302130  74.7000250  44.2246890  54.8526120  74.1202700
  44.7737660  55.0691640  75.5143640  46.7373930  70.5182880  76.3186850
  47.6324720  70.8567850  76.3405610  46.7691560  69.7962290  75.6911130
  40.3770090  65.8909930  74.5473850  40.8144960  66.4339600  75.2031430
  40.8617820  65.0656880  74.5570190  37.5915890  68.6798960  81.9994110
  37.9218900  67.8120020  81.7672750  38.0206890  68.8857480  82.8299070
  42.1877810  67.0107970  79.6596080  41.8873350  66.8872940  80.5599990
  42.0815300  66.1516560  79.2511810  38.0806100  69.5469550  84.7375740
  37.6437090  69.7270350  85.5699890  38.6483780  70.3044170  84.5957460
  54.9569730  66.7904370  74.3622760  54.1262690  66.8581020  74.8329990
  55.1341560  67.6808490  74.0589620  54.4126190  63.5351850  76.8656960
  55.1745100  64.1048500  76.9716650  54.4280560  62.9679050  77.6365270
  37.9130530  62.0589780  81.0964620  37.2579370  61.7901420  80.4524320
  38.7508480  61.9494260  80.6466600  55.4186160  64.3901950  81.7098890
  55.7894990  63.6069270  81.3034860  56.0588090  65.0791050  81.5316190
  52.4019920  65.7738530  87.1229210  51.5879760  66.2035690  87.3855000
  52.8094120  66.3856940  86.5098260  54.4645360  63.8286220  74.0229480
  54.7394200  64.7365100  73.8948700  54.2756100  63.7648750  74.9591470
  50.8620970  56.8531070  75.3183110  51.2805850  56.6662050  74.4779770
  50.5557030  56.0010120  75.6286040  54.3610700  61.7655210  79.0158910
  53.9854300  60.9983140  78.5840200  53.6313820  62.1477910  79.5033840
  38.9506460  62.4442350  85.6367960  39.3179500  62.3569750  86.5163980
  38.3817280  61.6808900  85.5374820  53.7510320  60.9126730  88.6498430
  53.5196410  60.6839480  87.7496380  54.0114870  61.8326280  88.6043320
  37.1268610  59.2688710  77.0389950  36.2232690  59.5318910  76.8641610
  37.6109230  59.5399880  76.2589910  53.6361660  59.9912700  82.3166150
  54.1599140  59.4975350  81.6856320  54.2221080  60.1263060  83.0613720
  53.8151380  60.0752570  85.8385700  52.8654090  60.0416110  85.9530690
  53.9964390  60.9852680  85.6035470  39.6695820  58.3254250  74.9484330
  40.3787520  57.9037470  74.4631610  38.9535760  58.3929480  74.3167680
  39.3169980  54.3793580  73.9886980  40.0398110  54.9202520  74.3068200
  39.5894500  54.1057000  73.1128520  53.1261630  59.2486050  78.2558560
  53.6220750  59.0156920  79.0407440  52.9277700  58.4097890  77.8396200
  39.0062170  53.6299770  83.8909600  39.6538360  53.0797150  83.4504760
  39.4264010  53.8842920  84.7125410  54.5548790  57.8847000  80.7896240
  54.4448070  57.7303040  81.7278510  55.3156380  57.3567940  80.5471650
  52.9014510  53.8241130  87.2479240  53.5386730  54.4375270  87.6138430
  53.0489400  53.8601790  86.3028470  55.4439060  55.7154920  74.0302380
  56.3688370  55.5836100  73.8220670  55.4214850  55.7947740  74.9838830
  55.5177550  56.4865580  76.6559090  54.7229050  56.4210700  77.1852000
  55.7220830  57.4216220  76.6444440  52.4595970  70.5257130  80.6497480
  53.0555040  70.2041700  79.9731900  52.7174120  70.0528950  81.4410750
  38.7594170  53.7855440  86.6334920  38.4108990  54.2419260  87.3993100
  38.4281870  52.8912570  86.7157350  44.0664570  68.5134630  86.3997830
  43.8255930  68.7809190  85.5128350  45.0067210  68.6840360  86.4548690
  55.3268730  70.5329010  87.2008470  54.8327010  70.9297880  86.4835600
  54.7182020  69.9078220  87.5945750  40.2046570  69.9037290  87.9185890
  39.6106890  69.7721990  88.6575930  40.1970410  69.0675430  87.4527990
  49.6501590  53.1969520  86.1215920  48.7761430  53.5304630  85.9188850
  49.5412340  52.7242700  86.9467790  50.5573570  55.4040390  87.5057640
  50.2286930  54.5892150  87.1259370  51.5055870  55.3610200  87.3823330
  53.0108180  71.1752430  84.4795210  52.5511150  71.9268240  84.1053230
  52.3820640  70.4558900  84.4210010  39.8358800  67.2695670  86.8693930
  39.1092860  66.6500960  86.8019880  39.8967950  67.6636280  85.9992010
  43.4403900  69.4840670  83.6543340  43.9568920  68.8728030  83.1291600
  44.0901280  69.9869450  84.1454350  46.1799400  70.3749160  84.4812320
  46.4677210  70.1203460  83.6045330  46.6922620  69.8226520  85.0717890
  47.3976410  54.1139360  85.0608830  46.6148200  54.5884860  85.3405590
  47.1039340  53.2094190  84.9522010  51.9497480  54.8162460  83.1057920
  52.3905570  54.7607560  82.2579520  51.6805070  55.7320470  83.1768100
  53.8136050  54.4477700  81.1166740  53.7524450  53.5038920  80.9697760
  54.5928080  54.5557790  81.6620200  38.1188800  70.5870060  80.0790690
  37.9510840  69.9540740  80.7772580  37.2523310  70.7929460  79.7284880
  38.7416820  54.4186840  77.5822550  39.4996180  54.5315720  77.0086580
  38.2793990  55.2556040  77.5365980  45.2830630  56.5326110  80.5724860
  44.4705140  56.1583000  80.2320740  45.7872270  55.7771190  80.8746050
  49.7855610  53.1968560  81.8107930  50.3884980  53.7688770  82.2856450
  49.0448600  53.7608000  81.5881830  52.9290210  53.5990120  77.0848210
  53.1240840  54.4973570  77.3515640  52.1420080  53.3677200  77.5781160
  39.7251500  69.2803290  77.5240830  39.1999120  69.6611320  76.8202790
  39.6496080  69.9054060  78.2450540  41.1141970  54.9450890  76.1224520
  41.6434730  54.1580690  75.9932470  41.7470290  55.6242080  76.3560050
  43.3079810  54.6826030  79.1769910  42.6782550  53.9813340  79.3440040
  42.7684950  55.4430160  78.9603070  54.4816820  70.8390830  78.8454770
  54.6569010  70.1528570  78.2015690  53.7838390  71.3637880  78.4531440
  42.3244470  71.2285670  76.3990080  43.0563290  70.9444950  75.8513970
  42.5838140  70.9898950  77.2889460  41.4859260  67.3450400  76.4036410
  40.8568140  67.8135500  76.9522240  41.6007090  66.4999620  76.8382600
  47.0727020  63.1735080  64.4346880  46.2969120  62.6935520  64.7245450
  47.7239950  62.4940730  64.2603040  51.0934450  67.5795270  63.2146010
  50.6315980  66.8082510  63.5433180  51.9060000  67.6061340  63.7198460
  41.0694110  67.5194980  65.5080660  41.3722150  66.6292720  65.3290880
  41.8137700  68.0765200  65.2802910  37.4617810  61.0462430  64.9804730
  38.0333920  60.2784630  64.9808370  37.4619350  61.3451190  64.0711340
  47.3197760  69.8653280  62.8350000  46.7009200  70.3210780  62.2644440
  48.1749540  70.0204740  62.4339700  46.5136010  65.8492270  64.4417040
  46.4444290  64.9082210  64.2806170  47.2755870  65.9393680  65.0139610
  48.1861110  64.7492520  60.2281910  47.5678380  65.2141970  59.6644630
  48.6984360  65.4420000  60.6451420  43.0492870  64.2768390  66.9065510
  42.7162250  64.9037310  67.5486580  43.2259550  64.8030270  66.1267180
  42.2611970  66.2449190  68.7214690  42.8785970  66.9200270  68.4399140
  41.4005090  66.6537170  68.6302190  37.5544310  65.4349050  57.6021540
  37.1772290  65.9236150  56.8706440  37.8117380  66.1074330  58.2328070
  53.1789560  67.7088600  66.6369330  52.4953080  68.3787710  66.6286000
  53.7183850  67.9069250  65.8714190  50.7148300  69.5532730  65.3514510
  50.7275460  69.1495020  64.4836770  50.1623520  70.3280020  65.2475940
  52.0093720  66.2748950  60.4404680  51.8990050  65.3323280  60.5654100
  52.0061970  66.6364590  61.3267440  50.1133740  64.4562570  66.6797120
  50.5302530  64.2422680  65.8450580  50.8373560  64.7135360  67.2505740
  54.0595840  62.8549790  66.7713360  53.2314470  62.9242880  66.2963490
  54.6546320  63.4404100  66.3029190  43.6252340  66.1146570  64.7426110
  43.3280630  65.5092040  64.0633890  44.5752160  66.1523880  64.6315470
  51.7137950  69.6878440  68.4049210  51.2368510  70.4950630  68.2121820
  51.0299740  69.0356770  68.5575420  42.7170770  65.8528260  71.3933910
  41.8199300  66.0768230  71.6407310  42.7423640  65.9763200  70.4445310
  41.5441990  62.7241580  69.9691280  41.4049760  63.5964380  70.3378680
  40.6623350  62.3814390  69.8239220  47.8671370  67.6417450  61.2756410
  48.3067280  68.3841780  60.8611800  47.8058260  67.8844020  62.1995370
  43.3422340  68.6663280  72.1776430  43.3137770  69.0706230  71.3104860
  43.1787310  67.7373640  72.0148030  55.2937160  69.4490380  73.4740600
  55.7696880  69.9273270  74.1529680  55.9144320  69.3807870  72.7486100
  37.4960640  64.4939130  65.8862190  37.5741060  64.6287900  64.9417910
  38.1102320  63.7855020  66.0790310  38.7408270  66.1939320  62.2968370
  38.3336350  66.3353910  61.4421970  39.6321280  65.9099480  62.0939580
  54.6970410  66.6403230  70.6340610  54.8233470  66.4015110  69.7157790
  54.7391790  65.8087770  71.1062690  48.5587150  70.3431230  69.2035420
  49.0731820  70.2539240  70.0057850  47.7156230  70.6890930  69.4963330
  50.5341550  70.6286570  58.6319420  50.3742690  70.3389510  59.5301250
  50.3688260  69.8526700  58.0964650  43.0129930  70.4085100  60.4091040
  42.8372410  69.4920640  60.1958840  42.1585670  70.7672390  60.6488840
  50.2367680  68.1374130  57.1917420  49.5432840  68.1351420  56.5319700
  50.9790540  67.7133450  56.7611590  49.8017610  69.7636840  61.2665910
  50.2574560  68.9826220  61.5804530  50.1410130  70.4743660  61.8107090
  54.5494420  58.6935690  71.5990350  53.9338690  59.2015360  71.0705810
  54.2290840  57.7934020  71.5416290  37.5520160  65.5353300  68.4256650
  37.7151200  65.0658660  67.6076020  38.0172610  65.0276860  69.0905490
  46.6108740  57.5327580  69.0652540  46.1488110  57.7410600  69.8772480
  46.2086850  56.7186930  68.7623210  51.6113250  58.7536530  70.1949200
  50.7606840  58.4542280  70.5158270  51.4515040  58.9978540  69.2833020
  48.7062960  60.2538280  72.2947990  49.0316370  59.4202030  71.9550220
  49.4943290  60.7766800  72.4426320  44.5552360  60.6878210  71.8558740
  44.4595960  59.7472940  71.7059140  45.3984340  60.9093280  71.4606810
  39.6862900  57.0991880  70.0092520  39.2926290  57.9467090  70.2165300
  38.9981300  56.4618250  70.2001160  46.2607950  57.1826850  73.0789260
  45.5706270  56.9899050  73.7135350  47.0040250  57.4661490  73.6113560
  48.5370920  61.0225290  65.9143180  47.8052040  61.5312100  66.2633280
  48.1395260  60.2055270  65.6131960  52.4267580  53.8891150  71.1652500
  52.7513350  53.1580810  71.6910480  52.4624090  53.5704790  70.2633490
  39.1259140  64.9104730  70.5852460  38.7413930  64.2698400  71.1835420
  39.4371330  65.6140850  71.1547190  45.2756280  61.7581270  66.0661080
  45.6426410  61.2839840  66.8122420  45.0861340  62.6322840  66.4069420
  43.0655650  60.7989910  68.3845290  42.7612720  61.6781890  68.6095650
  44.0202110  60.8589700  68.4202730  41.5937440  65.0050900  58.9812140
  40.8199700  64.4648520  58.8210860  42.3232070  64.4857510  58.6429900
  52.3525420  64.0016260  64.7738530  53.0724540  64.4971550  64.3834640
  52.1507240  63.3234150  64.1292400  47.7344220  64.0725320  70.6607530
  47.6681530  63.1520990  70.4065120  47.1049360  64.1700760  71.3752170
  39.1219380  61.6392650  69.5316650  38.7634320  62.3046500  70.1189990
  38.8273940  60.8076200  69.9029270  42.3232500  62.0976890  72.4156200
  42.0232640  62.2434070  71.5184020  43.0943740  61.5382180  72.3229590
  47.6660950  66.8945890  70.4111330  47.6805490  65.9626850  70.1930240
  46.9586050  66.9805650  71.0501100  53.8772160  63.5353230  69.7579910
  53.1520350  64.1282010  69.5609300  54.4047620  63.5276770  68.9593280
  53.8285270  67.9327970  59.4092070  53.1861430  67.2783590  59.6835790
  53.4415930  68.3383060  58.6332740  49.4071750  65.2613400  63.2563760
  49.7595570  64.6641530  62.5965130  48.5234080  64.9357630  63.4272010
  45.4935030  66.0211090  60.6634170  46.1806160  66.5680300  61.0441760
  44.7067450  66.5651820  60.6983780  47.0994850  68.5363460  67.5051830
  47.7437070  68.7422840  68.1825250  47.4624290  67.7751860  67.0522680
  48.3726930  66.5395810  66.2229280  49.0149160  65.8388970  66.3361450
  48.8976280  67.3194250  66.0426170  52.2182650  66.8244430  55.9468420
  51.9920230  66.1074870  56.5393060  51.8278850  66.5756870  55.1090170
  50.1464550  67.3390710  69.4265340  50.4820790  67.9257400  70.1043260
  49.2264890  67.2083420  69.6563130  37.9998680  70.8511290  56.7212880
  38.3596320  71.4500630  56.0670150  37.8591020  71.3971180  57.4947910
  37.6967950  55.1285890  70.2088750  36.9826470  55.3282810  70.8141360
  38.1162990  54.3525460  70.5803550  37.9840540  69.1166150  71.1955280
  38.0931660  68.1760890  71.0550670  37.3321100  69.3820900  70.5469010
  45.9753130  67.3882040  72.5953400  45.6550000  66.6691280  73.1399090
  45.3011490  68.0637110  72.6689460  44.0167300  68.2342490  57.5386550
  44.0077400  68.9672180  56.9231060  43.0965660  67.9874070  57.6313510
  39.6173940  63.4557380  58.2833310  39.0101890  64.1956280  58.2928610
  40.0923290  63.5456740  57.4571510  49.1906730  57.6208200  67.9590200
  49.5587550  56.8003410  68.2869770  48.3304930  57.6810090  68.3745850
  46.1508720  60.2747790  68.1828170  46.6493970  60.7493610  68.8480020
  46.2931670  59.3511310  68.3898200  45.6445010  70.8157050  60.8959410
  45.8986510  70.7778440  59.9738780  44.6957490  70.6890380  60.8887660
  53.6523170  68.9057780  64.1472180  53.7770590  69.7288950  64.6195990
  54.5188730  68.6948510  63.7996330  41.1240700  70.9988990  63.8189310
  41.8603180  70.4504450  64.0897880  41.5081620  71.8645000  63.6795300
  38.0086180  67.0662560  59.6930820  37.0825960  67.3083700  59.6836230
  38.4742610  67.8936820  59.5715570  40.1298980  70.1835060  73.0074890
  40.9311710  70.5047110  73.4210290  39.6150800  69.8230640  73.7294800
  44.2343010  70.1719300  55.6414880  45.0271620  70.4608130  55.1896670
  43.7147360  69.7411470  54.9627360  48.9663610  66.2914930  72.9550300
  48.3601770  66.3146530  72.2146050  48.6617720  65.5597970  73.4917550
  50.3963980  70.0195220  71.5659710  51.3485730  69.9353240  71.5159950
  50.2492200  70.6836930  72.2393500  53.2873180  69.3989430  57.0651620
  53.0014690  68.9854570  56.2505800  53.0892730  70.3277140  56.9452140
  37.8496790  62.6708520  71.9510940  38.3535810  62.0915800  72.5227170
  37.1104210  62.9548750  72.4887310  44.9034730  64.0779510  71.4846460
  44.1380400  64.6464510  71.4001130  45.0850690  63.7855720  70.5914690
  52.0458080  65.8084840  72.0421480  52.7867550  66.1460600  71.5388940
  51.2830760  65.9776900  71.4891250  39.8819870  60.8138110  72.8461010
  39.9225210  60.5151980  73.7546240  40.7365370  61.2145720  72.6868530
  43.6598260  63.4133660  58.0064520  44.0814680  63.2473530  58.8495910
  43.7849100  62.6033890  57.5119660  41.8225680  59.3930210  70.8135500
  41.2922140  58.9021160  70.1858840  42.4913750  59.8214410  70.2793430
  50.7203740  63.8599670  70.5776690  51.1344760  64.0144750  71.4267110
  49.7854740  63.9854890  70.7402470  51.1925910  61.1995830  72.5815840
  51.7746680  60.4448150  72.4936320  51.3687680  61.7303270  71.8047320
  42.3097980  56.3592580  70.8932790  42.2154850  55.7413330  70.1683660
  41.7295370  57.0858870  70.6662700  45.4818970  63.8120150  68.5472620
  45.9007080  64.6552880  68.3748860  44.5627600  63.9492190  68.3179400
  47.8182870  61.5436330  69.9310460  47.9379080  60.9477470  70.6705300
  48.6776870  61.5806020  69.5111760  50.1570770  62.0973520  68.5072970
  49.6305990  62.6216140  67.9038110  50.5002110  62.7300910  69.1382700
  43.3326390  70.1173160  69.6630350  42.7947480  70.8419220  69.3439050
  43.5860350  69.6403500  68.8727690  44.5851640  58.0857680  71.1886280
  45.1751330  57.7773530  71.8764100  43.7671880  57.6137430  71.3446180
  49.4045070  57.7023490  71.4219300  48.7160590  57.0405030  71.3569290
  50.1251090  57.2561760  71.8667760  46.1888600  71.3524370  69.9217000
  46.1147300  72.2559510  70.2289370  45.2867440  71.0336270  69.8939070
  46.7373930  70.5182880  57.5443360  47.6324720  70.8567850  57.5662120
  46.7691560  69.7962290  56.9167640  40.3770090  65.8909930  55.7730360
  40.8144960  66.4339600  56.4287940  40.8617820  65.0656880  55.7826700
  37.5915890  68.6798960  63.2250620  37.9218900  67.8120020  62.9929260
  38.0206890  68.8857480  64.0555580  42.1877810  67.0107970  60.8852590
  41.8873350  66.8872940  61.7856500  42.0815300  66.1516560  60.4768320
  38.0806100  69.5469550  65.9632250  37.6437090  69.7270350  66.7956400
  38.6483780  70.3044170  65.8213970  53.7168280  69.0486550  70.2509560
  53.1170270  69.1079110  69.5073480  53.8462180  68.1091530  70.3806410
  55.4186160  64.3901950  62.9355400  55.7894990  63.6069270  62.5291370
  56.0588090  65.0791050  62.7572700  52.4019920  65.7738530  68.3485720
  51.5879760  66.2035690  68.6111510  52.8094120  66.3856940  67.7354770
  54.3610700  61.7655210  60.2415420  53.9854300  60.9983140  59.8096710
  53.6313820  62.1477910  60.7290350  38.9506460  62.4442350  66.8624470
  39.3179500  62.3569750  67.7420490  38.3817280  61.6808900  66.7631330
  53.7510320  60.9126730  69.8754940  53.5196410  60.6839480  68.9752890
  54.0114870  61.8326280  69.8299830  38.5022460  59.3551440  70.7682890
  37.6078510  59.3218200  71.1076600  39.0420010  59.5538230  71.5334140
  52.1898390  56.1383160  72.6534640  53.0668570  56.1466560  73.0368640
  52.2019230  55.4014000  72.0426990  52.9014510  53.8241130  68.4735750
  53.5386730  54.4375270  68.8394940  53.0489400  53.8601790  67.5284980
  52.4595970  70.5257130  61.8753990  53.0555040  70.2041700  61.1988410
  52.7174120  70.0528950  62.6667260  40.3658540  66.9575040  72.0244620
  40.3228170  66.5867950  72.9059080  40.4969550  67.8952610  72.1646440
  44.0664570  68.5134630  67.6254340  43.8255930  68.7809190  66.7384860
  45.0067210  68.6840360  67.6805200  46.2718990  54.9767320  71.3810850
  46.2107880  55.5689150  72.1306260  47.2119370  54.8693280  71.2361110
  48.9093550  54.6337380  71.0203140  49.5233960  54.9516670  70.3584220
  49.4543110  54.1485970  71.6399000  55.3268730  70.5329010  68.4264980
  54.8327010  70.9297880  67.7092110  54.7182020  69.9078220  68.8202260
  39.4314810  53.3131640  71.1342200  39.9797800  53.1319690  70.3708310
  39.4970120  52.5225750  71.6698510  40.2046570  69.9037290  69.1442400
  39.6106890  69.7721990  69.8832440  40.1970410  69.0675430  68.6784500
  49.6501590  53.1969520  67.3472430  48.7761430  53.5304630  67.1445360
  49.5412340  52.7242700  68.1724300  50.5573570  55.4040390  68.7314150
  50.2286930  54.5892150  68.3515880  51.5055870  55.3610200  68.6079840
  53.0108180  71.1752430  65.7051720  52.5511150  71.9268240  65.3309740
  52.3820640  70.4558900  65.6466520  39.8358800  67.2695670  68.0950440
  39.1092860  66.6500960  68.0276390  39.8967950  67.6636280  67.2248520
  43.4403900  69.4840670  64.8799850  43.9568920  68.8728030  64.3548110
  44.0901280  69.9869450  65.3710860  46.1799400  70.3749160  65.7068830
  46.4677210  70.1203460  64.8301840  46.6922620  69.8226520  66.2974400
  38.1188800  70.5870060  61.3047200  37.9510840  69.9540740  62.0029090
  37.2523310  70.7929460  60.9541390  39.7251500  69.2803290  58.7497340
  39.1999120  69.6611320  58.0459300  39.6496080  69.9054060  59.4707050
  46.2471760  71.2965260  73.0737030  47.1739070  71.0609530  73.1172990
  46.2322190  72.1237260  72.5923060  54.4816820  70.8390830  60.0711280
  54.6569010  70.1528570  59.4272200  53.7838390  71.3637880  59.6787950
  43.4335370  53.9610010  72.8378910  43.1519640  54.4643610  72.0739730
  43.8155070  53.1631760  72.4721040  42.3244470  71.2285670  57.6246590
  43.0563290  70.9444950  57.0770480  42.5838140  70.9898950  58.5145970
  41.4859260  67.3450400  57.6292920  40.8568140  67.8135500  58.1778750
  41.6007090  66.4999620  58.0639110  50.0350830  53.3763590  73.4159380
  49.9216280  53.6958200  74.3110900  50.8520570  53.7776100  73.1196660
  52.8149320  70.5235120  72.8978070  53.6074640  70.0284350  72.6904030
  53.1082470  71.2025260  73.5053680  48.5587150  70.3431230  50.4291930
  49.0731820  70.2539240  51.2314360  47.7156230  70.6890930  50.7219840
  43.0129930  70.4085100  41.6347550  42.8372410  69.4920640  41.4215350
  42.1585670  70.7672390  41.8745350  37.9998680  70.8511290  37.9469390
  38.3596320  71.4500630  37.2926660  37.8591020  71.3971180  38.7204420
  41.1240700  70.9988990  45.0445820  41.8603180  70.4504450  45.3154390
  41.5081620  71.8645000  44.9051810  38.0086180  67.0662560  40.9187330
  37.0825960  67.3083700  40.9092740  38.4742610  67.8936820  40.7972080
  40.1298980  70.1835060  54.2331400  40.9311710  70.5047110  54.6466800
  39.6150800  69.8230640  54.9551310  43.3326390  70.1173160  50.8886860
  42.7947480  70.8419220  50.5695560  43.5860350  69.6403500  50.0984200
  46.1888600  71.3524370  51.1473510  46.1147300  72.2559510  51.4545880
  45.2867440  71.0336270  51.1195580  37.5915890  68.6798960  44.4507130
  37.9218900  67.8120020  44.2185770  38.0206890  68.8857480  45.2812090
  38.0806100  69.5469550  47.1888760  37.6437090  69.7270350  48.0212910
  38.6483780  70.3044170  47.0470480  55.3268730  70.5329010  49.6521490
  54.8327010  70.9297880  48.9348620  54.7182020  69.9078220  50.0458770
  53.0108180  71.1752430  46.9308230  52.5511150  71.9268240  46.5566250
  52.3820640  70.4558900  46.8723030  38.1188800  70.5870060  42.5303710
  37.9510840  69.9540740  43.2285600  37.2523310  70.7929460  42.1797900
  39.7251500  69.2803290  39.9753850  39.1999120  69.6611320  39.2715810
  39.6496080  69.9054060  40.6963560  46.2471760  71.2965260  54.2993540
  47.1739070  71.0609530  54.3429500  46.2322190  72.1237260  53.8179570
  42.3244470  71.2285670  38.8503100  43.0563290  70.9444950  38.3026990
  42.5838140  70.9898950  39.7402480  41.4859260  67.3450400  38.8549430
  40.8568140  67.8135500  39.4035260  41.6007090  66.4999620  39.2895620
  51.0934450  67.5795270  25.6659030  50.6315980  66.8082510  25.9946200
  51.9060000  67.6061340  26.1711480  47.3197760  69.8653280  25.2863020
  46.7009200  70.3210780  24.7157460  48.1749540  70.0204740  24.8852720
  37.5544310  65.4349050  20.0534560  37.1772290  65.9236150  19.3219460
  37.8117380  66.1074330  20.6841090  50.7148300  69.5532730  27.8027530
  50.7275460  69.1495020  26.9349790  50.1623520  70.3280020  27.6988960
  52.0093720  66.2748950  22.8917700  51.8990050  65.3323280  23.0167120
  52.0061970  66.6364590  23.7780460  51.7137950  69.6878440  30.8562230
  51.2368510  70.4950630  30.6634840  51.0299740  69.0356770  31.0088440
  43.3422340  68.6663280  34.6289450  43.3137770  69.0706230  33.7617880
  43.1787310  67.7373640  34.4661050  48.5587150  70.3431230  31.6548440
  49.0731820  70.2539240  32.4570870  47.7156230  70.6890930  31.9476350
  50.5341550  70.6286570  21.0832440  50.3742690  70.3389510  21.9814270
  50.3688260  69.8526700  20.5477670  43.0129930  70.4085100  22.8604060
  42.8372410  69.4920640  22.6471860  42.1585670  70.7672390  23.1001860
  50.2367680  68.1374130  19.6430440  49.5432840  68.1351420  18.9832720
  50.9790540  67.7133450  19.2124610  49.8017610  69.7636840  23.7178930
  50.2574560  68.9826220  24.0317550  50.1410130  70.4743660  24.2620110
  37.1750180  58.9640460  17.7038340  37.0924850  59.9071220  17.8453330
  36.8233240  58.8215370  16.8250690  41.5937440  65.0050900  21.4325160
  40.8199700  64.4648520  21.2723880  42.3232070  64.4857510  21.0942920
  46.5244340  65.9397560  20.3431270  46.8660040  66.6839790  19.8474590
  45.6957050  66.2528680  20.7056100  53.8285270  67.9327970  21.8605090
  53.1861430  67.2783590  22.1348810  53.4415930  68.3383060  21.0845760
  45.4935030  66.0211090  23.1147190  46.1806160  66.5680300  23.4954780
  44.7067450  66.5651820  23.1496800  37.6327430  61.6383910  18.6064270
  38.5022280  61.9208710  18.8900190  37.1417750  62.4519780  18.4913080
  52.2182650  66.8244430  18.3981440  51.9920230  66.1074870  18.9906080
  51.8278850  66.5756870  17.5603190  50.1464550  67.3390710  31.8778360
  50.4820790  67.9257400  32.5556280  49.2264890  67.2083420  32.1076150
  37.9998680  70.8511290  19.1725900  38.3596320  71.4500630  18.5183170
  37.8591020  71.3971180  19.9460930  37.9840540  69.1166150  33.6468300
  38.0931660  68.1760890  33.5063690  37.3321100  69.3820900  32.9982030
  44.0167300  68.2342490  19.9899570  44.0077400  68.9672180  19.3744080
  43.0965660  67.9874070  20.0826530  39.6173940  63.4557380  20.7346330
  39.0101890  64.1956280  20.7441630  40.0923290  63.5456740  19.9084530
  47.0026900  68.2970730  18.6524760  47.1038880  68.0934720  17.7226740
  46.1028640  68.0429010  18.8572540  45.6445010  70.8157050  23.3472430
  45.8986510  70.7778440  22.4251800  44.6957490  70.6890380  23.3400680
  41.6279230  63.4168530  18.4834900  42.3942500  63.3049890  19.0460330
  41.7053920  62.7206500  17.8311670  53.6523170  68.9057780  26.5985200
  53.7770590  69.7288950  27.0709010  54.5188730  68.6948510  26.2509350
  41.1240700  70.9988990  26.2702330  41.8603180  70.4504450  26.5410900
  41.5081620  71.8645000  26.1308320  38.0086180  67.0662560  22.1443840
  37.0825960  67.3083700  22.1349250  38.4742610  67.8936820  22.0228590
  40.1298980  70.1835060  35.4587910  40.9311710  70.5047110  35.8723310
  39.6150800  69.8230640  36.1807820  44.2343010  70.1719300  18.0927900
  45.0271620  70.4608130  17.6409690  43.7147360  69.7411470  17.4140380
  50.3963980  70.0195220  34.0172730  51.3485730  69.9353240  33.9672970
  50.2492200  70.6836930  34.6906520  53.2873180  69.3989430  19.5164640
  53.0014690  68.9854570  18.7018820  53.0892730  70.3277140  19.3965160
  44.7520410  65.3922710  17.9570250  44.6471050  64.7775060  18.6831630
  44.5844630  64.8688600  17.1733260  47.9923140  64.4542740  18.5612240
  47.4433240  64.9012040  19.2054980  48.6142400  63.9491990  19.0849910
  43.6598260  63.4133660  20.4577540  44.0814680  63.2473530  21.3008930
  43.7849100  62.6033890  19.9632680  46.1725900  62.4371270  17.7054640
  46.6931560  61.7220290  17.3395790  46.8194300  63.0757140  18.0055150
  43.3326390  70.1173160  32.1143370  42.7947480  70.8419220  31.7952070
  43.5860350  69.6403500  31.3240710  46.1888600  71.3524370  32.3730020
  46.1147300  72.2559510  32.6802390  45.2867440  71.0336270  32.3452090
  46.7373930  70.5182880  19.9956380  47.6324720  70.8567850  20.0175140
  46.7691560  69.7962290  19.3680660  40.3770090  65.8909930  18.2243380
  40.8144960  66.4339600  18.8800960  40.8617820  65.0656880  18.2339720
  37.5915890  68.6798960  25.6763640  37.9218900  67.8120020  25.4442280
  38.0206890  68.8857480  26.5068600  42.1877810  67.0107970  23.3365610
  41.8873350  66.8872940  24.2369520  42.0815300  66.1516560  22.9281340
  38.0806100  69.5469550  28.4145270  37.6437090  69.7270350  29.2469420
  38.6483780  70.3044170  28.2726990  54.9569730  66.7904370  18.0392290
  54.1262690  66.8581020  18.5099520  55.1341560  67.6808490  17.7359150
  39.3169980  54.3793580  17.6656510  40.0398110  54.9202520  17.9837730
  39.5894500  54.1057000  16.7898050  52.4595970  70.5257130  24.3267010
  53.0555040  70.2041700  23.6501430  52.7174120  70.0528950  25.1180280
  40.3658540  66.9575040  34.4757640  40.3228170  66.5867950  35.3572100
  40.4969550  67.8952610  34.6159460  44.0664570  68.5134630  30.0767360
  43.8255930  68.7809190  29.1897880  45.0067210  68.6840360  30.1318220
  55.3268730  70.5329010  30.8778000  54.8327010  70.9297880  30.1605130
  54.7182020  69.9078220  31.2715280  40.2046570  69.9037290  31.5955420
  39.6106890  69.7721990  32.3345460  40.1970410  69.0675430  31.1297520
  53.0108180  71.1752430  28.1564740  52.5511150  71.9268240  27.7822760
  52.3820640  70.4558900  28.0979540  43.4403900  69.4840670  27.3312870
  43.9568920  68.8728030  26.8061130  44.0901280  69.9869450  27.8223880
  46.1799400  70.3749160  28.1581850  46.4677210  70.1203460  27.2814860
  46.6922620  69.8226520  28.7487420  38.1188800  70.5870060  23.7560220
  37.9510840  69.9540740  24.4542110  37.2523310  70.7929460  23.4054410
  39.7251500  69.2803290  21.2010360  39.1999120  69.6611320  20.4972320
  39.6496080  69.9054060  21.9220070  46.2471760  71.2965260  35.5250050
  47.1739070  71.0609530  35.5686010  46.2322190  72.1237260  35.0436080
  54.4816820  70.8390830  22.5224300  54.6569010  70.1528570  21.8785220
  53.7838390  71.3637880  22.1300970  42.3244470  71.2285670  20.0759610
  43.0563290  70.9444950  19.5283500  42.5838140  70.9898950  20.9658990
  41.4859260  67.3450400  20.0805940  40.8568140  67.8135500  20.6291770
  41.6007090  66.4999620  20.5152130  48.9408980  61.3956060   6.2307140
  48.8603030  60.4810670   5.9598850  48.5273400  61.8923130   5.5246850
  47.0727020  63.1735080   8.1116410  46.2969120  62.6935520   8.4014980
  47.7239950  62.4940730   7.9372570  41.0892850  63.4854890   8.9892170
  40.2577730  63.2303600   9.3888680  41.6973830  63.5565660   9.7250090
  51.0934450  67.5795270   6.8915540  50.6315980  66.8082510   7.2202710
  51.9060000  67.6061340   7.3967990  41.0694110  67.5194980   9.1850190
  41.3722150  66.6292720   9.0060410  41.8137700  68.0765200   8.9572440
  39.4984800  58.4456780   2.7734560  38.6101500  58.7872750   2.6714440
  39.7825990  58.2457100   1.8815390  37.4617810  61.0462430   8.6574260
  38.0333920  60.2784630   8.6577900  37.4619350  61.3451190   7.7480870
  47.3197760  69.8653280   6.5119530  46.7009200  70.3210780   5.9413970
  48.1749540  70.0204740   6.1109230  46.5136010  65.8492270   8.1186570
  46.4444290  64.9082210   7.9575700  47.2755870  65.9393680   8.6909140
  38.7042680  56.4546790  10.4443190  38.5245520  55.5572540  10.7245950
  38.3022760  57.0018660  11.1190140  47.5441180  58.6562650   8.3455500
  47.9206000  57.7834530   8.2329170  47.4460690  58.9921350   7.4545940
  41.6746190  57.0288280   3.8072940  41.7812940  57.9292010   4.1141700
  40.7638550  56.9806250   3.5167590  51.3265300  56.1513090   5.2783840
  52.1474920  55.6609660   5.3209320  51.3599380  56.7410750   6.0315680
  39.3229350  58.9507290   9.0525530  40.0039460  59.2145660   9.6712930
  39.0077400  58.1108160   9.3863540  43.5153920  59.9974650   8.1398120
  44.0232140  60.4955620   8.7803140  44.0467160  59.2209850   7.9637480
  55.6164850  58.1679840  11.8427470  54.9117020  58.5561550  11.3242580
  55.8822770  58.8630130  12.4448400  41.7990020  54.6373210  12.4061540
  41.8008460  55.1545600  11.6007440  40.9694330  54.1603390  12.3831470
  48.1861110  64.7492520   3.9051440  47.5678380  65.2141970   3.3414160
  48.6984360  65.4420000   4.3220950  43.0492870  64.2768390  10.5835040
  42.7162250  64.9037310  11.2256110  43.2259550  64.8030270   9.8036710
  51.5626780  58.0913470   8.0511380  50.8582350  58.3798360   8.6314490
  51.9238940  58.9013580   7.6910940  41.4805350  56.3483170  10.4131990
  41.8222160  57.1925220  10.1185860  40.5421160  56.4966910  10.5297330
  42.2611970  66.2449190  12.3984220  42.8785970  66.9200270  12.1168670
  41.4005090  66.6537170  12.3071720  53.1789560  67.7088600  10.3138860
  52.4953080  68.3787710  10.3055530  53.7183850  67.9069250   9.5483720
  54.6313700  57.5368260   8.4420590  53.6838610  57.5707240   8.5736020
  54.9563690  58.3507210   8.8269950  45.1633240  53.8365440   6.7376580
  45.4708220  53.2812330   6.0212080  44.2333940  53.9709900   6.5549570
  50.7148300  69.5532730   9.0284040  50.7275460  69.1495020   8.1606300
  50.1623520  70.3280020   8.9245470  52.0093720  66.2748950   4.1174210
  51.8990050  65.3323280   4.2423630  52.0061970  66.6364590   5.0036970
  50.1133740  64.4562570  10.3566650  50.5302530  64.2422680   9.5220110
  50.8373560  64.7135360  10.9275270  47.5514000  61.9014270   3.4736700
  46.6243280  61.8351650   3.7025170  47.7038820  62.8394400   3.3591940
  54.0595840  62.8549790  10.4482890  53.2314470  62.9242880   9.9733020
  54.6546320  63.4404100   9.9798720  51.5811290  63.4634570   3.9771950
  50.9623710  63.1254120   3.3298250  51.5635740  62.8194330   4.6851140
  51.0237850  59.6419110  11.3937760  50.6109030  60.4672820  11.6477750
  50.2913800  59.0564150  11.2014120  43.1570640  62.4279010   6.2556430
  42.7527640  61.7156260   5.7602330  43.2433760  62.0832250   7.1444470
  43.6252340  66.1146570   8.4195640  43.3280630  65.5092040   7.7403420
  44.5752160  66.1523880   8.3085000  41.8699260  59.2022220  10.0355470
  42.4213850  59.3117560   9.2608720  42.3842770  59.5759820  10.7510700
  51.7137950  69.6878440  12.0818740  51.2368510  70.4950630  11.8891350
  51.0299740  69.0356770  12.2344950  42.7170770  65.8528260  15.0703440
  41.8199300  66.0768230  15.3176840  42.7423640  65.9763200  14.1214840
  41.5441990  62.7241580  13.6460810  41.4049760  63.5964380  14.0148210
  40.6623350  62.3814390  13.5008750  47.8671370  67.6417450   4.9525940
  48.3067280  68.3841780   4.5381330  47.8058260  67.8844020   5.8764900
  43.3422340  68.6663280  15.8545960  43.3137770  69.0706230  14.9874390
  43.1787310  67.7373640  15.6917560  39.8575270  61.3223990   3.7563080
  39.7372870  62.0486080   3.1444350  39.5476160  60.5526900   3.2790990
  55.2937160  69.4490380  17.1510130  55.7696880  69.9273270  17.8299210
  55.9144320  69.3807870  16.4255630  37.4960640  64.4939130   9.5631720
  37.5741060  64.6287900   8.6187440  38.1102320  63.7855020   9.7559840
  38.7408270  66.1939320   5.9737900  38.3336350  66.3353910   5.1191500
  39.6321280  65.9099480   5.7709110  54.6970410  66.6403230  14.3110140
  54.8233470  66.4015110  13.3927320  54.7391790  65.8087770  14.7832220
  48.5587150  70.3431230  12.8804950  49.0731820  70.2539240  13.6827380
  47.7156230  70.6890930  13.1732860  50.5341550  70.6286570   2.3088950
  50.3742690  70.3389510   3.2070780  50.3688260  69.8526700   1.7734180
  43.0129930  70.4085100   4.0860570  42.8372410  69.4920640   3.8728370
  42.1585670  70.7672390   4.3258370  49.8017610  69.7636840   4.9435440
  50.2574560  68.9826220   5.2574060  50.1410130  70.4743660   5.4876620
  54.5494420  58.6935690  15.2759880  53.9338690  59.2015360  14.7475340
  54.2290840  57.7934020  15.2185820  37.5520160  65.5353300  12.1026180
  37.7151200  65.0658660  11.2845550  38.0172610  65.0276860  12.7675020
  42.3238930  54.6659060   7.1386750  41.8807080  55.4468600   6.8071270
  42.8823920  54.9888950   7.8457690  46.6108740  57.5327580  12.7422070
  46.1488110  57.7410600  13.5542010  46.2086850  56.7186930  12.4392740
  51.6113250  58.7536530  13.8718730  50.7606840  58.4542280  14.1927800
  51.4515040  58.9978540  12.9602550  48.7062960  60.2538280  15.9717520
  49.0316370  59.4202030  15.6319750  49.4943290  60.7766800  16.1195850
  44.3614830  55.2106390   8.9976350  44.6587160  56.1169220   8.9168370
  44.9100390  54.7225170   8.3835920  42.1153150  59.7892630   4.8668000
  41.8894070  59.5729800   5.7714620  41.3345680  60.2221090   4.5213970
  49.3450910  59.7956000   3.4658650  48.7459800  60.5191800   3.2822270
  49.8930520  59.7332780   2.6835100  44.5552360  60.6878210  15.5328270
  44.4595960  59.7472940  15.3828670  45.3984340  60.9093280  15.1376340
  47.9515780  58.4319540   5.4961930  48.3445350  58.7491740   4.6830620
  48.3132630  57.5531420   5.6106450  39.6862900  57.0991880  13.6862050
  39.2926290  57.9467090  13.8934830  38.9981300  56.4618250  13.8770690
  36.9879950  55.0220340   7.7192130  36.6993000  55.5923200   8.4317110
  37.7325710  54.5424790   8.0823360  48.5370920  61.0225290   9.5912710
  47.8052040  61.5312100   9.9402810  48.1395260  60.2055270   9.2901490
  44.9748310  57.6979490   7.9965200  44.9784370  57.2569440   7.1469740
  45.8699430  58.0196820   8.1037020  40.8250690  57.5805980   6.9559410
  40.4850740  58.0581210   7.7126460  40.0628010  57.1271100   6.5960510
  48.9996830  56.4758970   9.0035650  49.0169570  56.9267620   9.8477500
  48.7512410  55.5764610   9.2169090  52.4267580  53.8891150  14.8422030
  52.7513350  53.1580810  15.3680010  52.4624090  53.5704790  13.9403020
  39.1259140  64.9104730  14.2621990  38.7413930  64.2698400  14.8604950
  39.4371330  65.6140850  14.8316720  45.2756280  61.7581270   9.7430610
  45.6426410  61.2839840  10.4891950  45.0861340  62.6322840  10.0838950
  38.1396770  56.5024960   5.8724080  37.8543690  56.1380630   6.7102700
  38.0775630  55.7705420   5.2587220  43.0655650  60.7989910  12.0614820
  42.7612720  61.6781890  12.2865180  44.0202110  60.8589700  12.0972260
  41.5937440  65.0050900   2.6581670  40.8199700  64.4648520   2.4980390
  42.3232070  64.4857510   2.3199430  52.3525420  64.0016260   8.4508060
  53.0724540  64.4971550   8.0604170  52.1507240  63.3234150   7.8061930
  47.8135360  55.3954220   2.5937450  46.9999970  54.8967390   2.5182760
  47.6197310  56.2352470   2.1773800  47.7344220  64.0725320  14.3377060
  47.6681530  63.1520990  14.0834650  47.1049360  64.1700760  15.0521700
  41.6374840  64.6731280   6.2960480  42.1553510  63.8699540   6.2417370
  41.1858860  64.6110420   7.1377310  39.1219380  61.6392650  13.2086180
  38.7634320  62.3046500  13.7959520  38.8273940  60.8076200  13.5798800
  42.3232500  62.0976890  16.0925730  42.0232640  62.2434070  15.1953550
  43.0943740  61.5382180  15.9999120  47.6660950  66.8945890  14.0880860
  47.6805490  65.9626850  13.8699770  46.9586050  66.9805650  14.7270630
  53.8772160  63.5353230  13.4349440  53.1520350  64.1282010  13.2378830
  54.4047620  63.5276770  12.6362810  53.8285270  67.9327970   3.0861600
  53.1861430  67.2783590   3.3605320  53.4415930  68.3383060   2.3102270
  49.4071750  65.2613400   6.9333290  49.7595570  64.6641530   6.2734660
  48.5234080  64.9357630   7.1041540  45.4935030  66.0211090   4.3403700
  46.1806160  66.5680300   4.7211290  44.7067450  66.5651820   4.3753310
  44.7962240  63.0257120   3.9529060  45.2525020  63.8362370   4.1789250
  44.4450450  62.7080260   4.7847550  47.0994850  68.5363460  11.1821360
  47.7437070  68.7422840  11.8594780  47.4624290  67.7751860  10.7292210
  40.6974020  53.3694770   4.4251580  40.5688650  53.3612670   5.3736500
  39.8736040  53.7077860   4.0742590  48.3726930  66.5395810   9.8998810
  49.0149160  65.8388970  10.0130980  48.8976280  67.3194250   9.7195700
  50.1464550  67.3390710  13.1034870  50.4820790  67.9257400  13.7812790
  49.2264890  67.2083420  13.3332660  37.6967950  55.1285890  13.8858280
  36.9826470  55.3282810  14.4910890  38.1162990  54.3525460  14.2573080
  37.9840540  69.1166150  14.8724810  38.0931660  68.1760890  14.7320200
  37.3321100  69.3820900  14.2238540  45.9753130  67.3882040  16.2722930
  45.6550000  66.6691280  16.8168620  45.3011490  68.0637110  16.3458990
  49.1906730  57.6208200  11.6359730  49.5587550  56.8003410  11.9639300
  48.3304930  57.6810090  12.0515380  52.5568760  56.5765140   2.4447290
  51.9281920  56.6810810   1.7305520  52.0620680  56.7961920   3.2341170
  44.5252790  58.8551090   3.8605170  43.8168940  59.3237430   4.3018780
  44.8097270  58.1973100   4.4950360  46.1508720  60.2747790  11.8597700
  46.6493970  60.7493610  12.5249550  46.2931670  59.3511310  12.0667730
  48.5568220  55.5801750   5.3000960  48.4336000  55.5987880   4.3510470
  49.5052780  55.6280690   5.4199360  45.6445010  70.8157050   4.5728940
  45.8986510  70.7778440   3.6508310  44.6957490  70.6890380   4.5657190
  53.3575580  56.4915750  12.7026090  52.8549180  57.2321150  13.0419900
  54.1732240  56.8799750  12.3862880  51.6497590  61.7348930   6.1487450
  50.7087730  61.7499160   6.3235140  51.9641660  60.9484890   6.5947750
  53.6523170  68.9057780   7.8241710  53.7770590  69.7288950   8.2965520
  54.5188730  68.6948510   7.4765860  41.1240700  70.9988990   7.4958840
  41.8603180  70.4504450   7.7667410  41.5081620  71.8645000   7.3564830
  38.0086180  67.0662560   3.3700350  37.0825960  67.3083700   3.3605760
  38.4742610  67.8936820   3.2485100  40.1298980  70.1835060  16.6844420
  40.9311710  70.5047110  17.0979820  39.6150800  69.8230640  17.4064330
  48.9663610  66.2914930  16.6319830  48.3601770  66.3146530  15.8915580
  48.6617720  65.5597970  17.1687080  50.3963980  70.0195220  15.2429240
  51.3485730  69.9353240  15.1929480  50.2492200  70.6836930  15.9163030
  37.8496790  62.6708520  15.6280470  38.3535810  62.0915800  16.1996700
  37.1104210  62.9548750  16.1656840  44.9034730  64.0779510  15.1615990
  44.1380400  64.6464510  15.0770660  45.0850690  63.7855720  14.2684220
  52.0458080  65.8084840  15.7191010  52.7867550  66.1460600  15.2158470
  51.2830760  65.9776900  15.1660780  39.8819870  60.8138110  16.5230540
  39.9225210  60.5151980  17.4315770  40.7365370  61.2145720  16.3638060
  41.8225680  59.3930210  14.4905030  41.2922140  58.9021160  13.8628370
  42.4913750  59.8214410  13.9562960  50.7203740  63.8599670  14.2546220
  51.1344760  64.0144750  15.1036640  49.7854740  63.9854890  14.4172000
  51.1925910  61.1995830  16.2585370  51.7746680  60.4448150  16.1705850
  51.3687680  61.7303270  15.4816850  42.3097980  56.3592580  14.5702320
  42.2154850  55.7413330  13.8453190  41.7295370  57.0858870  14.3432230
  45.0759420  54.9165820  11.6029710  44.6276720  54.9390080  10.7575260
  44.4424620  54.5184840  12.2000010  45.4818970  63.8120150  12.2242150
  45.9007080  64.6552880  12.0518390  44.5627600  63.9492190  11.9948930
  47.8182870  61.5436330  13.6079990  47.9379080  60.9477470  14.3474830
  48.6776870  61.5806020  13.1881290  50.1570770  62.0973520  12.1842500
  49.6305990  62.6216140  11.5807640  50.5002110  62.7300910  12.8152230
  43.3326390  70.1173160  13.3399880  42.7947480  70.8419220  13.0208580
  43.5860350  69.6403500  12.5497220  44.5851640  58.0857680  14.8655810
  45.1751330  57.7773530  15.5533630  43.7671880  57.6137430  15.0215710
  49.4045070  57.7023490  15.0988830  48.7160590  57.0405030  15.0338820
  50.1251090  57.2561760  15.5437290  46.1888600  71.3524370  13.5986530
  46.1147300  72.2559510  13.9058900  45.2867440  71.0336270  13.5708600
  37.5915890  68.6798960   6.9020150  37.9218900  67.8120020   6.6698790
  38.0206890  68.8857480   7.7325110  42.1877810  67.0107970   4.5622120
  41.8873350  66.8872940   5.4626030  42.0815300  66.1516560   4.1537850
  38.0806100  69.5469550   9.6401780  37.6437090  69.7270350  10.4725930
  38.6483780  70.3044170   9.4983500  53.7168280  69.0486550  13.9279090
  53.1170270  69.1079110  13.1843010  53.8462180  68.1091530  14.0575940
  54.4126190  63.5351850   1.7683000  55.1745100  64.1048500   1.8742690
  54.4280560  62.9679050   2.5391310  37.9130530  62.0589780   5.9990660
  37.2579370  61.7901420   5.3550360  38.7508480  61.9494260   5.5492640
  55.4186160  64.3901950   6.6124930  55.7894990  63.6069270   6.2060900
  56.0588090  65.0791050   6.4342230  52.4019920  65.7738530  12.0255250
  51.5879760  66.2035690  12.2881040  52.8094120  66.3856940  11.4124300
  54.3610700  61.7655210   3.9184950  53.9854300  60.9983140   3.4866240
  53.6313820  62.1477910   4.4059880  38.9506460  62.4442350  10.5394000
  39.3179500  62.3569750  11.4190020  38.3817280  61.6808900  10.4400860
  53.7510320  60.9126730  13.5524470  53.5196410  60.6839480  12.6522420
  54.0114870  61.8326280  13.5069360  38.5022460  59.3551440  14.4452420
  37.6078510  59.3218200  14.7846130  39.0420010  59.5538230  15.2103670
  53.6361660  59.9912700   7.2192190  54.1599140  59.4975350   6.5882360
  54.2221080  60.1263060   7.9639760  53.8151380  60.0752570  10.7411740
  52.8654090  60.0416110  10.8556730  53.9964390  60.9852680  10.5061510
  53.1261630  59.2486050   3.1584600  53.6220750  59.0156920   3.9433480
  52.9277700  58.4097890   2.7422240  39.0062170  53.6299770   8.7935640
  39.6538360  53.0797150   8.3530800  39.4264010  53.8842920   9.6151450
  54.5548790  57.8847000   5.6922280  54.4448070  57.7303040   6.6304550
  55.3156380  57.3567940   5.4497690  52.9014510  53.8241130  12.1505280
  53.5386730  54.4375270  12.5164470  53.0489400  53.8601790  11.2054510
  52.4595970  70.5257130   5.5523520  53.0555040  70.2041700   4.8757940
  52.7174120  70.0528950   6.3436790  38.7594170  53.7855440  11.5360960
  38.4108990  54.2419260  12.3019140  38.4281870  52.8912570  11.6183390
  40.3658540  66.9575040  15.7014150  40.3228170  66.5867950  16.5828610
  40.4969550  67.8952610  15.8415970  44.0664570  68.5134630  11.3023870
  43.8255930  68.7809190  10.4154390  45.0067210  68.6840360  11.3574730
  46.2718990  54.9767320  15.0580380  46.2107880  55.5689150  15.8075790
  47.2119370  54.8693280  14.9130640  48.9093550  54.6337380  14.6972670
  49.5233960  54.9516670  14.0353750  49.4543110  54.1485970  15.3168530
  55.3268730  70.5329010  12.1034510  54.8327010  70.9297880  11.3861640
  54.7182020  69.9078220  12.4971790  39.4314810  53.3131640  14.8111730
  39.9797800  53.1319690  14.0477840  39.4970120  52.5225750  15.3468040
  40.2046570  69.9037290  12.8211930  39.6106890  69.7721990  13.5601970
  40.1970410  69.0675430  12.3554030  49.6501590  53.1969520  11.0241960
  48.7761430  53.5304630  10.8214890  49.5412340  52.7242700  11.8493830
  50.5573570  55.4040390  12.4083680  50.2286930  54.5892150  12.0285410
  51.5055870  55.3610200  12.2849370  53.0108180  71.1752430   9.3821250
  52.5511150  71.9268240   9.0079270  52.3820640  70.4558900   9.3236050
  39.8358800  67.2695670  11.7719970  39.1092860  66.6500960  11.7045920
  39.8967950  67.6636280  10.9018050  43.4403900  69.4840670   8.5569380
  43.9568920  68.8728030   8.0317640  44.0901280  69.9869450   9.0480390
  46.1799400  70.3749160   9.3838360  46.4677210  70.1203460   8.5071370
  46.6922620  69.8226520   9.9743930  47.3976410  54.1139360   9.9634870
  46.6148200  54.5884860  10.2431630  47.1039340  53.2094190   9.8548050
  51.9497480  54.8162460   8.0083960  52.3905570  54.7607560   7.1605560
  51.6805070  55.7320470   8.0794140  53.8136050  54.4477700   6.0192780
  53.7524450  53.5038920   5.8723800  54.5928080  54.5557790   6.5646240
  38.1188800  70.5870060   4.9816730  37.9510840  69.9540740   5.6798620
  37.2523310  70.7929460   4.6310920  38.7416820  54.4186840   2.4848590
  39.4996180  54.5315720   1.9112620  38.2793990  55.2556040   2.4392020
  45.2830630  56.5326110   5.4750900  44.4705140  56.1583000   5.1346780
  45.7872270  55.7771190   5.7772090  49.7855610  53.1968560   6.7133970
  50.3884980  53.7688770   7.1882490  49.0448600  53.7608000   6.4907870
  52.9290210  53.5990120   1.9874250  53.1240840  54.4973570   2.2541680
  52.1420080  53.3677200   2.4807200  39.7251500  69.2803290   2.4266870
  39.1999120  69.6611320   1.7228830  39.6496080  69.9054060   3.1476580
  43.3079810  54.6826030   4.0795950  42.6782550  53.9813340   4.2466080
  42.7684950  55.4430160   3.8629110  46.2471760  71.2965260  16.7506560
  47.1739070  71.0609530  16.7942520  46.2322190  72.1237260  16.2692590
  54.4816820  70.8390830   3.7480810  54.6569010  70.1528570   3.1041730
  53.7838390  71.3637880   3.3557480  52.8149320  70.5235120  16.5747600
  53.6074640  70.0284350  16.3673560  53.1082470  71.2025260  17.1823210
  48.9408980  42.6212570  81.3281100  48.8603030  41.7067180  81.0572810
  48.5273400  43.1179640  80.6220810  47.0727020  44.3991590  83.2090370
  46.2969120  43.9192030  83.4988940  47.7239950  43.7197240  83.0346530
  41.0892850  44.7111400  84.0866130  40.2577730  44.4560110  84.4862640
  41.6973830  44.7822170  84.8224050  51.0934450  48.8051780  81.9889500
  50.6315980  48.0339020  82.3176670  51.9060000  48.8317850  82.4941950
  41.0694110  48.7451490  84.2824150  41.3722150  47.8549230  84.1034370
  41.8137700  49.3021710  84.0546400  39.4984800  39.6713290  77.8708520
  38.6101500  40.0129260  77.7688400  39.7825990  39.4713610  76.9789350
  37.4617810  42.2718940  83.7548220  38.0333920  41.5041140  83.7551860
  37.4619350  42.5707700  82.8454830  47.3197760  51.0909790  81.6093490
  46.7009200  51.5467290  81.0387930  48.1749540  51.2461250  81.2083190
  46.5136010  47.0748780  83.2160530  46.4444290  46.1338720  83.0549660
  47.2755870  47.1650190  83.7883100  38.7042680  37.6803300  85.5417150
  38.5245520  36.7829050  85.8219910  38.3022760  38.2275170  86.2164100
  47.5441180  39.8819160  83.4429460  47.9206000  39.0091040  83.3303130
  47.4460690  40.2177860  82.5519900  41.6746190  38.2544790  78.9046900
  41.7812940  39.1548520  79.2115660  40.7638550  38.2062760  78.6141550
  51.3265300  37.3769600  80.3757800  52.1474920  36.8866170  80.4183280
  51.3599380  37.9667260  81.1289640  39.3229350  40.1763800  84.1499490
  40.0039460  40.4402170  84.7686890  39.0077400  39.3364670  84.4837500
  43.5153920  41.2231160  83.2372080  44.0232140  41.7212130  83.8777100
  44.0467160  40.4466360  83.0611440  55.6164850  39.3936350  86.9401430
  54.9117020  39.7818060  86.4216540  55.8822770  40.0886640  87.5422360
  41.7990020  35.8629720  87.5035500  41.8008460  36.3802110  86.6981400
  40.9694330  35.3859900  87.4805430  48.1861110  45.9749030  79.0025400
  47.5678380  46.4398480  78.4388120  48.6984360  46.6676510  79.4194910
  43.0492870  45.5024900  85.6809000  42.7162250  46.1293820  86.3230070
  43.2259550  46.0286780  84.9010670  51.5626780  39.3169980  83.1485340
  50.8582350  39.6054870  83.7288450  51.9238940  40.1270090  82.7884900
  41.4805350  37.5739680  85.5105950  41.8222160  38.4181730  85.2159820
  40.5421160  37.7223420  85.6271290  42.2611970  47.4705700  87.4958180
  42.8785970  48.1456780  87.2142630  41.4005090  47.8793680  87.4045680
  53.1789560  48.9345110  85.4112820  52.4953080  49.6044220  85.4029490
  53.7183850  49.1325760  84.6457680  54.6313700  38.7624770  83.5394550
  53.6838610  38.7963750  83.6709980  54.9563690  39.5763720  83.9243910
  45.1633240  35.0621950  81.8350540  45.4708220  34.5068840  81.1186040
  44.2333940  35.1966410  81.6523530  50.7148300  50.7789240  84.1258000
  50.7275460  50.3751530  83.2580260  50.1623520  51.5536530  84.0219430
  52.0093720  47.5005460  79.2148170  51.8990050  46.5579790  79.3397590
  52.0061970  47.8621100  80.1010930  50.1133740  45.6819080  85.4540610
  50.5302530  45.4679190  84.6194070  50.8373560  45.9391870  86.0249230
  47.5514000  43.1270780  78.5710660  46.6243280  43.0608160  78.7999130
  47.7038820  44.0650910  78.4565900  47.5383080  39.3987780  75.5677820
  46.5986750  39.5601740  75.6530280  47.8566340  40.1173460  75.0213810
  54.0595840  44.0806300  85.5456850  53.2314470  44.1499390  85.0706980
  54.6546320  44.6660610  85.0772680  51.5811290  44.6891080  79.0745910
  50.9623710  44.3510630  78.4272210  51.5635740  44.0450840  79.7825100
  51.0237850  40.8675620  86.4911720  50.6109030  41.6929330  86.7451710
  50.2913800  40.2820660  86.2988080  43.1570640  43.6535520  81.3530390
  42.7527640  42.9412770  80.8576290  43.2433760  43.3088760  82.2418430
  43.6252340  47.3403080  83.5169600  43.3280630  46.7348550  82.8377380
  44.5752160  47.3780390  83.4058960  41.8699260  40.4278730  85.1329430
  42.4213850  40.5374070  84.3582680  42.3842770  40.8016330  85.8484660
  51.7137950  50.9134950  87.1792700  51.2368510  51.7207140  86.9865310
  51.0299740  50.2613280  87.3318910  49.7575990  43.9277890  76.0818660
  50.1969270  43.0900320  75.9356480  50.4704410  44.5607290  76.1682800
  41.5441990  43.9498090  88.7434770  41.4049760  44.8220890  89.1122170
  40.6623350  43.6070900  88.5982710  47.8671370  48.8673960  80.0499900
  48.3067280  49.6098290  79.6355290  47.8058260  49.1100530  80.9738860
  53.3393130  35.1820700  74.3959700  53.0265790  35.2747530  75.2958770
  54.1005600  35.7601730  74.3457130  39.8575270  42.5480500  78.8537040
  39.7372870  43.2742590  78.2418310  39.5476160  41.7783410  78.3764950
  37.4960640  45.7195640  84.6605680  37.5741060  45.8544410  83.7161400
  38.1102320  45.0111530  84.8533800  38.7408270  47.4195830  81.0711860
  38.3336350  47.5610420  80.2165460  39.6321280  47.1355990  80.8683070
  48.5587150  51.5687740  87.9778910  49.0731820  51.4795750  88.7801340
  47.7156230  51.9147440  88.2706820  50.5341550  51.8543080  77.4062910
  50.3742690  51.5646020  78.3044740  50.3688260  51.0783210  76.8708140
  43.0129930  51.6341610  79.1834530  42.8372410  50.7177150  78.9702330
  42.1585670  51.9928900  79.4232330  50.2367680  49.3630640  75.9660910
  49.5432840  49.3607930  75.3063190  50.9790540  48.9389960  75.5355080
  49.8017610  50.9893350  80.0409400  50.2574560  50.2082730  80.3548020
  50.1410130  51.7000170  80.5850580  37.5520160  46.7609810  87.2000140
  37.7151200  46.2915170  86.3819510  38.0172610  46.2533370  87.8648980
  42.3238930  35.8915570  82.2360710  41.8807080  36.6725110  81.9045230
  42.8823920  36.2145460  82.9431650  46.6108740  38.7584090  87.8396030
  46.1488110  38.9667110  88.6515970  46.2086850  37.9443440  87.5366700
  45.4397750  35.5126270  77.1166540  44.8151930  35.5086140  77.8419850
  45.3527870  34.6457230  76.7202510  44.3614830  36.4362900  84.0950310
  44.6587160  37.3425730  84.0142330  44.9100390  35.9481680  83.4809880
  42.1153150  41.0149140  79.9641960  41.8894070  40.7986310  80.8688580
  41.3345680  41.4477600  79.6187930  49.3450910  41.0212510  78.5632610
  48.7459800  41.7448310  78.3796230  49.8930520  40.9589290  77.7809060
  47.9515780  39.6576050  80.5935890  48.3445350  39.9748250  79.7804580
  48.3132630  38.7787930  80.7080410  39.6862900  38.3248390  88.7836010
  39.2926290  39.1723600  88.9908790  38.9981300  37.6874760  88.9744650
  36.9879950  36.2476850  82.8166090  36.6993000  36.8179710  83.5291070
  37.7325710  35.7681300  83.1797320  48.5370920  42.2481800  84.6886670
  47.8052040  42.7568610  85.0376770  48.1395260  41.4311780  84.3875450
  44.9748310  38.9236000  83.0939160  44.9784370  38.4825950  82.2443700
  45.8699430  39.2453330  83.2010980  40.8250690  38.8062490  82.0533370
  40.4850740  39.2837720  82.8100420  40.0628010  38.3527610  81.6934470
  45.0368460  39.9248080  76.0845920  45.1581280  39.8834560  77.0331740
  44.6516970  40.7872230  75.9292650  48.9996830  37.7015480  84.1009610
  49.0169570  38.1524130  84.9451460  48.7512410  36.8021120  84.3143050
  44.0489960  42.2349220  75.4829220  43.4806860  41.7867470  74.8565130
  44.7578960  42.5942000  74.9494370  45.2756280  42.9837780  84.8404570
  45.6426410  42.5096350  85.5865910  45.0861340  43.8579350  85.1812910
  38.1396770  37.7281470  80.9698040  37.8543690  37.3637140  81.8076660
  38.0775630  36.9961930  80.3561180  43.0655650  42.0246420  87.1588780
  42.7612720  42.9038400  87.3839140  44.0202110  42.0846210  87.1946220
  41.5937440  46.2307410  77.7555630  40.8199700  45.6905030  77.5954350
  42.3232070  45.7114020  77.4173390  52.3525420  45.2272770  83.5482020
  53.0724540  45.7228060  83.1578130  52.1507240  44.5490660  82.9035890
  47.8135360  36.6210730  77.6911410  46.9999970  36.1223900  77.6156720
  47.6197310  37.4608980  77.2747760  50.5283750  40.9930380  75.9873570
  51.4163370  41.3047610  75.8124910  50.4988840  40.1202630  75.5954150
  41.6374840  45.8987790  81.3934440  42.1553510  45.0956050  81.3391330
  41.1858860  45.8366930  82.2351270  46.5244340  47.1654070  76.6661740
  46.8660040  47.9096300  76.1705060  45.6957050  47.4785190  77.0286570
  39.1219380  42.8649160  88.3060140  38.7634320  43.5303010  88.8933480
  38.8273940  42.0332710  88.6772760  52.7998020  42.3042220  75.4553430
  52.7161740  42.7356440  74.6049870  53.5192210  42.7640570  75.8880250
  53.8772160  44.7609740  88.5323400  53.1520350  45.3538520  88.3352790
  54.4047620  44.7533280  87.7336770  53.8285270  49.1584480  78.1835560
  53.1861430  48.5040100  78.4579280  53.4415930  49.5639570  77.4076230
  49.4071750  46.4869910  82.0307250  49.7595570  45.8898040  81.3708620
  48.5234080  46.1614140  82.2015500  45.4935030  47.2467600  79.4377660
  46.1806160  47.7936810  79.8185250  44.7067450  47.7908330  79.4727270
  44.7962240  44.2513630  79.0503020  45.2525020  45.0618880  79.2763210
  44.4450450  43.9336770  79.8821510  47.0994850  49.7619970  86.2795320
  47.7437070  49.9679350  86.9568740  47.4624290  49.0008370  85.8266170
  40.6974020  34.5951280  79.5225540  40.5688650  34.5869180  80.4710460
  39.8736040  34.9334370  79.1716550  48.3726930  47.7652320  84.9972770
  49.0149160  47.0645480  85.1104940  48.8976280  48.5450760  84.8169660
  52.2182650  48.0500940  74.7211910  51.9920230  47.3331380  75.3136550
  51.8278850  47.8013380  73.8833660  50.1464550  48.5647220  88.2008830
  50.4820790  49.1513910  88.8786750  49.2264890  48.4339930  88.4306620
  37.9998680  52.0767800  75.4956370  38.3596320  52.6757140  74.8413640
  37.8591020  52.6227690  76.2691400  51.7998900  45.9672880  76.3826070
  51.5120600  46.4285570  77.1703950  52.5951070  45.5070650  76.6510290
  44.0167300  49.4599000  76.3130040  44.0077400  50.1928690  75.6974550
  43.0965660  49.2130580  76.4057000  49.1906730  38.8464710  86.7333690
  49.5587550  38.0259920  87.0613260  48.3304930  38.9066600  87.1489340
  52.5568760  37.8021650  77.5421250  51.9281920  37.9067320  76.8279480
  52.0620680  38.0218430  78.3315130  47.0026900  49.5227240  74.9755230
  47.1038880  49.3191230  74.0457210  46.1028640  49.2685520  75.1803010
  44.5252790  40.0807600  78.9579130  43.8168940  40.5493940  79.3992740
  44.8097270  39.4229610  79.5924320  46.1508720  41.5004300  86.9571660
  46.6493970  41.9750120  87.6223510  46.2931670  40.5767820  87.1641690
  48.5568220  36.8058260  80.3974920  48.4336000  36.8244390  79.4484430
  49.5052780  36.8537200  80.5173320  45.6445010  52.0413560  79.6702900
  45.8986510  52.0034950  78.7482270  44.6957490  51.9146890  79.6631150
  42.7287810  38.3892680  76.3329840  43.5778340  38.8262830  76.2670030
  42.3619080  38.7012940  77.1601900  53.3575580  37.7172260  87.8000050
  52.8549180  38.4577660  88.1393860  54.1732240  38.1056260  87.4836840
  51.6497590  42.9605440  81.2461410  50.7087730  42.9755670  81.4209100
  51.9641660  42.1741400  81.6921710  53.6523170  50.1314290  82.9215670
  53.7770590  50.9545460  83.3939480  54.5188730  49.9205020  82.5739820
  41.1240700  52.2245500  82.5932800  41.8603180  51.6760960  82.8641370
  41.5081620  53.0901510  82.4538790  38.0086180  48.2919070  78.4674310
  37.0825960  48.5340210  78.4579720  38.4742610  49.1193330  78.3459060
  44.2343010  51.3975810  74.4158370  45.0271620  51.6864640  73.9640160
  43.7147360  50.9667980  73.7370850  53.2873180  50.6245940  75.8395110
  53.0014690  50.2111080  75.0249290  53.0892730  51.5533650  75.7195630
  44.7520410  46.6179220  74.2800720  44.6471050  46.0031570  75.0062100
  44.5844630  46.0945110  73.4963730  47.9923140  45.6799250  74.8842710
  47.4433240  46.1268550  75.5285450  48.6142400  45.1748500  75.4080380
  43.6598260  44.6390170  76.7808010  44.0814680  44.4730040  77.6239400
  43.7849100  43.8290400  76.2863150  46.1725900  43.6627780  74.0285110
  46.6931560  42.9476800  73.6626260  46.8194300  44.3013650  74.3285620
  45.0759420  36.1422330  86.7003670  44.6276720  36.1646590  85.8549220
  44.4424620  35.7441350  87.2973970  45.4818970  45.0376660  87.3216110
  45.9007080  45.8809390  87.1492350  44.5627600  45.1748700  87.0922890
  50.1570770  43.3230030  87.2816460  49.6305990  43.8472650  86.6781600
  50.5002110  43.9557420  87.9126190  43.3326390  51.3429670  88.4373840
  42.7947480  52.0675730  88.1182540  43.5860350  50.8660010  87.6471180
  50.0345470  35.5231630  76.2553050  50.3147760  34.6799530  76.6112470
  49.2611200  35.7554740  76.7691800  41.3539960  37.8124020  73.7144050
  41.6565860  37.8191450  72.8063200  42.0934550  37.4621880  74.2111710
  46.1888600  52.5780880  88.6960490  46.1147300  53.4816020  89.0032860
  45.2867440  52.2592780  88.6682560  44.5724890  36.7558640  74.7000250
  44.2246890  36.0782630  74.1202700  44.7737660  36.2948150  75.5143640
  46.7373930  51.7439390  76.3186850  47.6324720  52.0824360  76.3405610
  46.7691560  51.0218800  75.6911130  37.5915890  49.9055470  81.9994110
  37.9218900  49.0376530  81.7672750  38.0206890  50.1113990  82.8299070
  42.1877810  48.2364480  79.6596080  41.8873350  48.1129450  80.5599990
  42.0815300  47.3773070  79.2511810  38.0806100  50.7726060  84.7375740
  37.6437090  50.9526860  85.5699890  38.6483780  51.5300680  84.5957460
  54.9569730  48.0160880  74.3622760  54.1262690  48.0837530  74.8329990
  55.1341560  48.9065000  74.0589620  54.4126190  44.7608360  76.8656960
  55.1745100  45.3305010  76.9716650  54.4280560  44.1935560  77.6365270
  37.9130530  43.2846290  81.0964620  37.2579370  43.0157930  80.4524320
  38.7508480  43.1750770  80.6466600  55.4186160  45.6158460  81.7098890
  55.7894990  44.8325780  81.3034860  56.0588090  46.3047560  81.5316190
  52.4019920  46.9995040  87.1229210  51.5879760  47.4292200  87.3855000
  52.8094120  47.6113450  86.5098260  54.4645360  45.0542730  74.0229480
  54.7394200  45.9621610  73.8948700  54.2756100  44.9905260  74.9591470
  50.8620970  38.0787580  75.3183110  51.2805850  37.8918560  74.4779770
  50.5557030  37.2266630  75.6286040  54.3610700  42.9911720  79.0158910
  53.9854300  42.2239650  78.5840200  53.6313820  43.3734420  79.5033840
  38.9506460  43.6698860  85.6367960  39.3179500  43.5826260  86.5163980
  38.3817280  42.9065410  85.5374820  53.7510320  42.1383240  88.6498430
  53.5196410  41.9095990  87.7496380  54.0114870  43.0582790  88.6043320
  53.6361660  41.2169210  82.3166150  54.1599140  40.7231860  81.6856320
  54.2221080  41.3519570  83.0613720  53.8151380  41.3009080  85.8385700
  52.8654090  41.2672620  85.9530690  53.9964390  42.2109190  85.6035470
  39.3169980  35.6050090  73.9886980  40.0398110  36.1459030  74.3068200
  39.5894500  35.3313510  73.1128520  53.1261630  40.4742560  78.2558560
  53.6220750  40.2413430  79.0407440  52.9277700  39.6354400  77.8396200
  39.0062170  34.8556280  83.8909600  39.6538360  34.3053660  83.4504760
  39.4264010  35.1099430  84.7125410  54.5548790  39.1103510  80.7896240
  54.4448070  38.9559550  81.7278510  55.3156380  38.5824450  80.5471650
  52.9014510  35.0497640  87.2479240  53.5386730  35.6631780  87.6138430
  53.0489400  35.0858300  86.3028470  55.4439060  36.9411430  74.0302380
  56.3688370  36.8092610  73.8220670  55.4214850  37.0204250  74.9838830
  55.5177550  37.7122090  76.6559090  54.7229050  37.6467210  77.1852000
  55.7220830  38.6472730  76.6444440  52.4595970  51.7513640  80.6497480
  53.0555040  51.4298210  79.9731900  52.7174120  51.2785460  81.4410750
  38.7594170  35.0111950  86.6334920  38.4108990  35.4675770  87.3993100
  38.4281870  34.1169080  86.7157350  44.0664570  49.7391140  86.3997830
  43.8255930  50.0065700  85.5128350  45.0067210  49.9096870  86.4548690
  55.3268730  51.7585520  87.2008470  54.8327010  52.1554390  86.4835600
  54.7182020  51.1334730  87.5945750  40.2046570  51.1293800  87.9185890
  39.6106890  50.9978500  88.6575930  40.1970410  50.2931940  87.4527990
  49.6501590  34.4226030  86.1215920  48.7761430  34.7561140  85.9188850
  49.5412340  33.9499210  86.9467790  50.5573570  36.6296900  87.5057640
  50.2286930  35.8148660  87.1259370  51.5055870  36.5866710  87.3823330
  53.0108180  52.4008940  84.4795210  52.5511150  53.1524750  84.1053230
  52.3820640  51.6815410  84.4210010  39.8358800  48.4952180  86.8693930
  39.1092860  47.8757470  86.8019880  39.8967950  48.8892790  85.9992010
  43.4403900  50.7097180  83.6543340  43.9568920  50.0984540  83.1291600
  44.0901280  51.2125960  84.1454350  46.1799400  51.6005670  84.4812320
  46.4677210  51.3459970  83.6045330  46.6922620  51.0483030  85.0717890
  47.3976410  35.3395870  85.0608830  46.6148200  35.8141370  85.3405590
  47.1039340  34.4350700  84.9522010  51.9497480  36.0418970  83.1057920
  52.3905570  35.9864070  82.2579520  51.6805070  36.9576980  83.1768100
  53.8136050  35.6734210  81.1166740  53.7524450  34.7295430  80.9697760
  54.5928080  35.7814300  81.6620200  38.1188800  51.8126570  80.0790690
  37.9510840  51.1797250  80.7772580  37.2523310  52.0185970  79.7284880
  38.7416820  35.6443350  77.5822550  39.4996180  35.7572230  77.0086580
  38.2793990  36.4812550  77.5365980  45.2830630  37.7582620  80.5724860
  44.4705140  37.3839510  80.2320740  45.7872270  37.0027700  80.8746050
  49.7855610  34.4225070  81.8107930  50.3884980  34.9945280  82.2856450
  49.0448600  34.9864510  81.5881830  52.9290210  34.8246630  77.0848210
  53.1240840  35.7230080  77.3515640  52.1420080  34.5933710  77.5781160
  39.7251500  50.5059800  77.5240830  39.1999120  50.8867830  76.8202790
  39.6496080  51.1310570  78.2450540  41.1141970  36.1707400  76.1224520
  41.6434730  35.3837200  75.9932470  41.7470290  36.8498590  76.3560050
  43.3079810  35.9082540  79.1769910  42.6782550  35.2069850  79.3440040
  42.7684950  36.6686670  78.9603070  54.4816820  52.0647340  78.8454770
  54.6569010  51.3785080  78.2015690  53.7838390  52.5894390  78.4531440
  42.3244470  52.4542180  76.3990080  43.0563290  52.1701460  75.8513970
  42.5838140  52.2155460  77.2889460  41.4859260  48.5706910  76.4036410
  40.8568140  49.0392010  76.9522240  41.6007090  47.7256130  76.8382600
  55.6164850  39.3936350  68.1657940  54.9117020  39.7818060  67.6473050
  55.8822770  40.0886640  68.7678870  51.5626780  39.3169980  64.3741850
  50.8582350  39.6054870  64.9544960  51.9238940  40.1270090  64.0141410
  53.1789560  48.9345110  66.6369330  52.4953080  49.6044220  66.6286000
  53.7183850  49.1325760  65.8714190  54.6313700  38.7624770  64.7651060
  53.6838610  38.7963750  64.8966490  54.9563690  39.5763720  65.1500420
  45.1633240  35.0621950  63.0607050  45.4708220  34.5068840  62.3442550
  44.2333940  35.1966410  62.8780040  54.0595840  44.0806300  66.7713360
  53.2314470  44.1499390  66.2963490  54.6546320  44.6660610  66.3029190
  51.0237850  40.8675620  67.7168230  50.6109030  41.6929330  67.9708220
  50.2913800  40.2820660  67.5244590  51.7137950  50.9134950  68.4049210
  51.2368510  51.7207140  68.2121820  51.0299740  50.2613280  68.5575420
  55.2937160  50.6746890  73.4740600  55.7696880  51.1529780  74.1529680
  55.9144320  50.6064380  72.7486100  54.6970410  47.8659740  70.6340610
  54.8233470  47.6271620  69.7157790  54.7391790  47.0344280  71.1062690
  48.5587150  51.5687740  69.2035420  49.0731820  51.4795750  70.0057850
  47.7156230  51.9147440  69.4963330  54.5494420  39.9192200  71.5990350
  53.9338690  40.4271870  71.0705810  54.2290840  39.0190530  71.5416290
  46.6108740  38.7584090  69.0652540  46.1488110  38.9667110  69.8772480
  46.2086850  37.9443440  68.7623210  51.6113250  39.9793040  70.1949200
  50.7606840  39.6798790  70.5158270  51.4515040  40.2235050  69.2833020
  48.7062960  41.4794790  72.2947990  49.0316370  40.6458540  71.9550220
  49.4943290  42.0023310  72.4426320  46.2607950  38.4083360  73.0789260
  45.5706270  38.2155560  73.7135350  47.0040250  38.6918000  73.6113560
  48.5370920  42.2481800  65.9143180  47.8052040  42.7568610  66.2633280
  48.1395260  41.4311780  65.6131960  48.9996830  37.7015480  65.3266120
  49.0169570  38.1524130  66.1707970  48.7512410  36.8021120  65.5399560
  52.4267580  35.1147660  71.1652500  52.7513350  34.3837320  71.6910480
  52.4624090  34.7961300  70.2633490  47.7344220  45.2981830  70.6607530
  47.6681530  44.3777500  70.4065120  47.1049360  45.3957270  71.3752170
  53.8772160  44.7609740  69.7579910  53.1520350  45.3538520  69.5609300
  54.4047620  44.7533280  68.9593280  37.9840540  50.3422660  71.1955280
  38.0931660  49.4017400  71.0550670  37.3321100  50.6077410  70.5469010
  45.9753130  48.6138550  72.5953400  45.6550000  47.8947790  73.1399090
  45.3011490  49.2893620  72.6689460  49.1906730  38.8464710  67.9590200
  49.5587550  38.0259920  68.2869770  48.3304930  38.9066600  68.3745850
  53.3575580  37.7172260  69.0256560  52.8549180  38.4577660  69.3650370
  54.1732240  38.1056260  68.7093350  40.1298980  51.4091570  73.0074890
  40.9311710  51.7303620  73.4210290  39.6150800  51.0487150  73.7294800
  48.9663610  47.5171440  72.9550300  48.3601770  47.5403040  72.2146050
  48.6617720  46.7854480  73.4917550  50.3963980  51.2451730  71.5659710
  51.3485730  51.1609750  71.5159950  50.2492200  51.9093440  72.2393500
  52.0458080  47.0341350  72.0421480  52.7867550  47.3717110  71.5388940
  51.2830760  47.2033410  71.4891250  50.7203740  45.0856180  70.5776690
  51.1344760  45.2401260  71.4267110  49.7854740  45.2111400  70.7402470
  51.1925910  42.4252340  72.5815840  51.7746680  41.6704660  72.4936320
  51.3687680  42.9559780  71.8047320  45.0759420  36.1422330  67.9260180
  44.6276720  36.1646590  67.0805730  44.4424620  35.7441350  68.5230480
  47.8182870  42.7692840  69.9310460  47.9379080  42.1733980  70.6705300
  48.6776870  42.8062530  69.5111760  50.1570770  43.3230030  68.5072970
  49.6305990  43.8472650  67.9038110  50.5002110  43.9557420  69.1382700
  49.4045070  38.9280000  71.4219300  48.7160590  38.2661540  71.3569290
  50.1251090  38.4818270  71.8667760  46.1888600  52.5780880  69.9217000
  46.1147300  53.4816020  70.2289370  45.2867440  52.2592780  69.8939070
  53.7168280  50.2743060  70.2509560  53.1170270  50.3335620  69.5073480
  53.8462180  49.3348040  70.3806410  55.4186160  45.6158460  62.9355400
  55.7894990  44.8325780  62.5291370  56.0588090  46.3047560  62.7572700
  52.4019920  46.9995040  68.3485720  51.5879760  47.4292200  68.6111510
  52.8094120  47.6113450  67.7354770  53.7510320  42.1383240  69.8754940
  53.5196410  41.9095990  68.9752890  54.0114870  43.0582790  69.8299830
  52.1898390  37.3639670  72.6534640  53.0668570  37.3723070  73.0368640
  52.2019230  36.6270510  72.0426990  53.8151380  41.3009080  67.0642210
  52.8654090  41.2672620  67.1787200  53.9964390  42.2109190  66.8291980
  52.9014510  35.0497640  68.4735750  53.5386730  35.6631780  68.8394940
  53.0489400  35.0858300  67.5284980  46.2718990  36.2023830  71.3810850
  46.2107880  36.7945660  72.1306260  47.2119370  36.0949790  71.2361110
  48.9093550  35.8593890  71.0203140  49.5233960  36.1773180  70.3584220
  49.4543110  35.3742480  71.6399000  55.3268730  51.7585520  68.4264980
  54.8327010  52.1554390  67.7092110  54.7182020  51.1334730  68.8202260
  49.6501590  34.4226030  67.3472430  48.7761430  34.7561140  67.1445360
  49.5412340  33.9499210  68.1724300  50.5573570  36.6296900  68.7314150
  50.2286930  35.8148660  68.3515880  51.5055870  36.5866710  68.6079840
  53.0108180  52.4008940  65.7051720  52.5511150  53.1524750  65.3309740
  52.3820640  51.6815410  65.6466520  47.3976410  35.3395870  66.2865340
  46.6148200  35.8141370  66.5662100  47.1039340  34.4350700  66.1778520
  51.9497480  36.0418970  64.3314430  52.3905570  35.9864070  63.4836030
  51.6805070  36.9576980  64.4024610  53.8136050  35.6734210  62.3423250
  53.7524450  34.7295430  62.1954270  54.5928080  35.7814300  62.8876710
  49.7855610  34.4225070  63.0364440  50.3884980  34.9945280  63.5112960
  49.0448600  34.9864510  62.8138340  46.2471760  52.5221770  73.0737030
  47.1739070  52.2866040  73.1172990  46.2322190  53.3493770  72.5923060
  43.4335370  35.1866520  72.8378910  43.1519640  35.6900120  72.0739730
  43.8155070  34.3888270  72.4721040  50.0350830  34.6020100  73.4159380
  49.9216280  34.9214710  74.3110900  50.8520570  35.0032610  73.1196660
  52.8149320  51.7491630  72.8978070  53.6074640  51.2540860  72.6904030
  53.1082470  52.4281770  73.5053680  39.4984800  39.6713290  21.5478050
  38.6101500  40.0129260  21.4457930  39.7825990  39.4713610  20.6558880
  41.6746190  38.2544790  22.5816430  41.7812940  39.1548520  22.8885190
  40.7638550  38.2062760  22.2911080  45.1633240  35.0621950  25.5120070
  45.4708220  34.5068840  24.7955570  44.2333940  35.1966410  25.3293060
  39.8575270  42.5480500  22.5306570  39.7372870  43.2742590  21.9187840
  39.5476160  41.7783410  22.0534480  42.3238930  35.8915570  25.9130240
  41.8807080  36.6725110  25.5814760  42.8823920  36.2145460  26.6201180
  45.4397750  35.5126270  20.7936070  44.8151930  35.5086140  21.5189380
  45.3527870  34.6457230  20.3972040  36.9879950  36.2476850  26.4935620
  36.6993000  36.8179710  27.2060600  37.7325710  35.7681300  26.8566850
  37.1750180  40.1896970  17.7038340  37.0924850  41.1327730  17.8453330
  36.8233240  40.0471880  16.8250690  40.8250690  38.8062490  25.7302900
  40.4850740  39.2837720  26.4869950  40.0628010  38.3527610  25.3704000
  38.1396770  37.7281470  24.6467570  37.8543690  37.3637140  25.4846190
  38.0775630  36.9961930  24.0330710  47.8135360  36.6210730  21.3680940
  46.9999970  36.1223900  21.2926250  47.6197310  37.4608980  20.9517290
  37.6327430  42.8640420  18.6064270  38.5022280  43.1465220  18.8900190
  37.1417750  43.6776290  18.4913080  40.6974020  34.5951280  23.1995070
  40.5688650  34.5869180  24.1479990  39.8736040  34.9334370  22.8486080
  37.9998680  52.0767800  19.1725900  38.3596320  52.6757140  18.5183170
  37.8591020  52.6227690  19.9460930  39.6173940  44.6813890  20.7346330
  39.0101890  45.4212790  20.7441630  40.0923290  44.7713250  19.9084530
  42.7287810  38.3892680  20.0099370  43.5778340  38.8262830  19.9439560
  42.3619080  38.7012940  20.8371430  40.3225990  42.0750110  19.1667790
  40.4029580  41.1277620  19.2785190  41.2145740  42.4056990  19.2728450
  38.0086180  48.2919070  22.1443840  37.0825960  48.5340210  22.1349250
  38.4742610  49.1193330  22.0228590  42.5557160  40.7123400  17.4035700
  42.3546220  39.8490760  17.7649040  42.3849210  40.6256760  16.4657300
  50.0345470  35.5231630  19.9322580  50.3147760  34.6799530  20.2882000
  49.2611200  35.7554740  20.4461330  41.3539960  37.8124020  17.3913580
  41.6565860  37.8191450  16.4832730  42.0934550  37.4621880  17.8881240
  44.5724890  36.7558640  18.3769780  44.2246890  36.0782630  17.7972230
  44.7737660  36.2948150  19.1913170  37.9130530  43.2846290  24.7734150
  37.2579370  43.0157930  24.1293850  38.7508480  43.1750770  24.3236130
  37.1268610  40.4945220  20.7159480  36.2232690  40.7575420  20.5411140
  37.6109230  40.7656390  19.9359440  39.6695820  39.5510760  18.6253860
  40.3787520  39.1293980  18.1401140  38.9535760  39.6185990  17.9937210
  39.3169980  35.6050090  17.6656510  40.0398110  36.1459030  17.9837730
  39.5894500  35.3313510  16.7898050  39.0062170  34.8556280  27.5679130
  39.6538360  34.3053660  27.1274290  39.4264010  35.1099430  28.3894940
  38.7594170  35.0111950  30.3104450  38.4108990  35.4675770  31.0762630
  38.4281870  34.1169080  30.3926880  38.7416820  35.6443350  21.2592080
  39.4996180  35.7572230  20.6856110  38.2793990  36.4812550  21.2135510
  41.1141970  36.1707400  19.7994050  41.6434730  35.3837200  19.6702000
  41.7470290  36.8498590  20.0329580  43.3079810  35.9082540  22.8539440
  42.6782550  35.2069850  23.0209570  42.7684950  36.6686670  22.6372600
  48.9408980  42.6212570   6.2307140  48.8603030  41.7067180   5.9598850
  48.5273400  43.1179640   5.5246850  47.0727020  44.3991590   8.1116410
  46.2969120  43.9192030   8.4014980  47.7239950  43.7197240   7.9372570
  41.0892850  44.7111400   8.9892170  40.2577730  44.4560110   9.3888680
  41.6973830  44.7822170   9.7250090  51.0934450  48.8051780   6.8915540
  50.6315980  48.0339020   7.2202710  51.9060000  48.8317850   7.3967990
  41.0694110  48.7451490   9.1850190  41.3722150  47.8549230   9.0060410
  41.8137700  49.3021710   8.9572440  39.4984800  39.6713290   2.7734560
  38.6101500  40.0129260   2.6714440  39.7825990  39.4713610   1.8815390
  37.4617810  42.2718940   8.6574260  38.0333920  41.5041140   8.6577900
  37.4619350  42.5707700   7.7480870  47.3197760  51.0909790   6.5119530
  46.7009200  51.5467290   5.9413970  48.1749540  51.2461250   6.1109230
  46.5136010  47.0748780   8.1186570  46.4444290  46.1338720   7.9575700
  47.2755870  47.1650190   8.6909140  38.7042680  37.6803300  10.4443190
  38.5245520  36.7829050  10.7245950  38.3022760  38.2275170  11.1190140
  47.5441180  39.8819160   8.3455500  47.9206000  39.0091040   8.2329170
  47.4460690  40.2177860   7.4545940  41.6746190  38.2544790   3.8072940
  41.7812940  39.1548520   4.1141700  40.7638550  38.2062760   3.5167590
  51.3265300  37.3769600   5.2783840  52.1474920  36.8866170   5.3209320
  51.3599380  37.9667260   6.0315680  39.3229350  40.1763800   9.0525530
  40.0039460  40.4402170   9.6712930  39.0077400  39.3364670   9.3863540
  43.5153920  41.2231160   8.1398120  44.0232140  41.7212130   8.7803140
  44.0467160  40.4466360   7.9637480  41.7990020  35.8629720  12.4061540
  41.8008460  36.3802110  11.6007440  40.9694330  35.3859900  12.3831470
  48.1861110  45.9749030   3.9051440  47.5678380  46.4398480   3.3414160
  48.6984360  46.6676510   4.3220950  43.0492870  45.5024900  10.5835040
  42.7162250  46.1293820  11.2256110  43.2259550  46.0286780   9.8036710
  51.5626780  39.3169980   8.0511380  50.8582350  39.6054870   8.6314490
  51.9238940  40.1270090   7.6910940  41.4805350  37.5739680  10.4131990
  41.8222160  38.4181730  10.1185860  40.5421160  37.7223420  10.5297330
  42.2611970  47.4705700  12.3984220  42.8785970  48.1456780  12.1168670
  41.4005090  47.8793680  12.3071720  53.1789560  48.9345110  10.3138860
  52.4953080  49.6044220  10.3055530  53.7183850  49.1325760   9.5483720
  54.6313700  38.7624770   8.4420590  53.6838610  38.7963750   8.5736020
  54.9563690  39.5763720   8.8269950  45.1633240  35.0621950   6.7376580
  45.4708220  34.5068840   6.0212080  44.2333940  35.1966410   6.5549570
  50.7148300  50.7789240   9.0284040  50.7275460  50.3751530   8.1606300
  50.1623520  51.5536530   8.9245470  52.0093720  47.5005460   4.1174210
  51.8990050  46.5579790   4.2423630  52.0061970  47.8621100   5.0036970
  50.1133740  45.6819080  10.3566650  50.5302530  45.4679190   9.5220110
  50.8373560  45.9391870  10.9275270  47.5514000  43.1270780   3.4736700
  46.6243280  43.0608160   3.7025170  47.7038820  44.0650910   3.3591940
  54.0595840  44.0806300  10.4482890  53.2314470  44.1499390   9.9733020
  54.6546320  44.6660610   9.9798720  51.5811290  44.6891080   3.9771950
  50.9623710  44.3510630   3.3298250  51.5635740  44.0450840   4.6851140
  43.1570640  43.6535520   6.2556430  42.7527640  42.9412770   5.7602330
  43.2433760  43.3088760   7.1444470  43.6252340  47.3403080   8.4195640
  43.3280630  46.7348550   7.7403420  44.5752160  47.3780390   8.3085000
  41.8699260  40.4278730  10.0355470  42.4213850  40.5374070   9.2608720
  42.3842770  40.8016330  10.7510700  51.7137950  50.9134950  12.0818740
  51.2368510  51.7207140  11.8891350  51.0299740  50.2613280  12.2344950
  41.5441990  43.9498090  13.6460810  41.4049760  44.8220890  14.0148210
  40.6623350  43.6070900  13.5008750  47.8671370  48.8673960   4.9525940
  48.3067280  49.6098290   4.5381330  47.8058260  49.1100530   5.8764900
  39.8575270  42.5480500   3.7563080  39.7372870  43.2742590   3.1444350
  39.5476160  41.7783410   3.2790990  37.4960640  45.7195640   9.5631720
  37.5741060  45.8544410   8.6187440  38.1102320  45.0111530   9.7559840
  38.7408270  47.4195830   5.9737900  38.3336350  47.5610420   5.1191500
  39.6321280  47.1355990   5.7709110  54.6970410  47.8659740  14.3110140
  54.8233470  47.6271620  13.3927320  54.7391790  47.0344280  14.7832220
  48.5587150  51.5687740  12.8804950  49.0731820  51.4795750  13.6827380
  47.7156230  51.9147440  13.1732860  50.5341550  51.8543080   2.3088950
  50.3742690  51.5646020   3.2070780  50.3688260  51.0783210   1.7734180
  43.0129930  51.6341610   4.0860570  42.8372410  50.7177150   3.8728370
  42.1585670  51.9928900   4.3258370  49.8017610  50.9893350   4.9435440
  50.2574560  50.2082730   5.2574060  50.1410130  51.7000170   5.4876620
  37.5520160  46.7609810  12.1026180  37.7151200  46.2915170  11.2845550
  38.0172610  46.2533370  12.7675020  42.3238930  35.8915570   7.1386750
  41.8807080  36.6725110   6.8071270  42.8823920  36.2145460   7.8457690
  46.6108740  38.7584090  12.7422070  46.1488110  38.9667110  13.5542010
  46.2086850  37.9443440  12.4392740  44.3614830  36.4362900   8.9976350
  44.6587160  37.3425730   8.9168370  44.9100390  35.9481680   8.3835920
  42.1153150  41.0149140   4.8668000  41.8894070  40.7986310   5.7714620
  41.3345680  41.4477600   4.5213970  49.3450910  41.0212510   3.4658650
  48.7459800  41.7448310   3.2822270  49.8930520  40.9589290   2.6835100
  44.5552360  41.9134720  15.5328270  44.4595960  40.9729450  15.3828670
  45.3984340  42.1349790  15.1376340  47.9515780  39.6576050   5.4961930
  48.3445350  39.9748250   4.6830620  48.3132630  38.7787930   5.6106450
  39.6862900  38.3248390  13.6862050  39.2926290  39.1723600  13.8934830
  38.9981300  37.6874760  13.8770690  46.2607950  38.4083360  16.7558790
  45.5706270  38.2155560  17.3904880  47.0040250  38.6918000  17.2883090
  36.9879950  36.2476850   7.7192130  36.6993000  36.8179710   8.4317110
  37.7325710  35.7681300   8.0823360  48.5370920  42.2481800   9.5912710
  47.8052040  42.7568610   9.9402810  48.1395260  41.4311780   9.2901490
  44.9748310  38.9236000   7.9965200  44.9784370  38.4825950   7.1469740
  45.8699430  39.2453330   8.1037020  40.8250690  38.8062490   6.9559410
  40.4850740  39.2837720   7.7126460  40.0628010  38.3527610   6.5960510
  48.9996830  37.7015480   9.0035650  49.0169570  38.1524130   9.8477500
  48.7512410  36.8021120   9.2169090  52.4267580  35.1147660  14.8422030
  52.7513350  34.3837320  15.3680010  52.4624090  34.7961300  13.9403020
  39.1259140  46.1361240  14.2621990  38.7413930  45.4954910  14.8604950
  39.4371330  46.8397360  14.8316720  45.2756280  42.9837780   9.7430610
  45.6426410  42.5096350  10.4891950  45.0861340  43.8579350  10.0838950
  38.1396770  37.7281470   5.8724080  37.8543690  37.3637140   6.7102700
  38.0775630  36.9961930   5.2587220  43.0655650  42.0246420  12.0614820
  42.7612720  42.9038400  12.2865180  44.0202110  42.0846210  12.0972260
  41.5937440  46.2307410   2.6581670  40.8199700  45.6905030   2.4980390
  42.3232070  45.7114020   2.3199430  52.3525420  45.2272770   8.4508060
  53.0724540  45.7228060   8.0604170  52.1507240  44.5490660   7.8061930
  47.8135360  36.6210730   2.5937450  46.9999970  36.1223900   2.5182760
  47.6197310  37.4608980   2.1773800  47.7344220  45.2981830  14.3377060
  47.6681530  44.3777500  14.0834650  47.1049360  45.3957270  15.0521700
  41.6374840  45.8987790   6.2960480  42.1553510  45.0956050   6.2417370
  41.1858860  45.8366930   7.1377310  39.1219380  42.8649160  13.2086180
  38.7634320  43.5303010  13.7959520  38.8273940  42.0332710  13.5798800
  42.3232500  43.3233400  16.0925730  42.0232640  43.4690580  15.1953550
  43.0943740  42.7638690  15.9999120  47.6660950  48.1202400  14.0880860
  47.6805490  47.1883360  13.8699770  46.9586050  48.2062160  14.7270630
  53.8285270  49.1584480   3.0861600  53.1861430  48.5040100   3.3605320
  53.4415930  49.5639570   2.3102270  49.4071750  46.4869910   6.9333290
  49.7595570  45.8898040   6.2734660  48.5234080  46.1614140   7.1041540
  45.4935030  47.2467600   4.3403700  46.1806160  47.7936810   4.7211290
  44.7067450  47.7908330   4.3753310  44.7962240  44.2513630   3.9529060
  45.2525020  45.0618880   4.1789250  44.4450450  43.9336770   4.7847550
  47.0994850  49.7619970  11.1821360  47.7437070  49.9679350  11.8594780
  47.4624290  49.0008370  10.7292210  40.6974020  34.5951280   4.4251580
  40.5688650  34.5869180   5.3736500  39.8736040  34.9334370   4.0742590
  48.3726930  47.7652320   9.8998810  49.0149160  47.0645480  10.0130980
  48.8976280  48.5450760   9.7195700  50.1464550  48.5647220  13.1034870
  50.4820790  49.1513910  13.7812790  49.2264890  48.4339930  13.3332660
  37.6967950  36.3542400  13.8858280  36.9826470  36.5539320  14.4910890
  38.1162990  35.5781970  14.2573080  37.9840540  50.3422660  14.8724810
  38.0931660  49.4017400  14.7320200  37.3321100  50.6077410  14.2238540
  49.1906730  38.8464710  11.6359730  49.5587550  38.0259920  11.9639300
  48.3304930  38.9066600  12.0515380  52.5568760  37.8021650   2.4447290
  51.9281920  37.9067320   1.7305520  52.0620680  38.0218430   3.2341170
  44.5252790  40.0807600   3.8605170  43.8168940  40.5493940   4.3018780
  44.8097270  39.4229610   4.4950360  46.1508720  41.5004300  11.8597700
  46.6493970  41.9750120  12.5249550  46.2931670  40.5767820  12.0667730
  48.5568220  36.8058260   5.3000960  48.4336000  36.8244390   4.3510470
  49.5052780  36.8537200   5.4199360  45.6445010  52.0413560   4.5728940
  45.8986510  52.0034950   3.6508310  44.6957490  51.9146890   4.5657190
  53.3575580  37.7172260  12.7026090  52.8549180  38.4577660  13.0419900
  54.1732240  38.1056260  12.3862880  51.6497590  42.9605440   6.1487450
  50.7087730  42.9755670   6.3235140  51.9641660  42.1741400   6.5947750
  53.6523170  50.1314290   7.8241710  53.7770590  50.9545460   8.2965520
  54.5188730  49.9205020   7.4765860  41.1240700  52.2245500   7.4958840
  41.8603180  51.6760960   7.7667410  41.5081620  53.0901510   7.3564830
  38.0086180  48.2919070   3.3700350  37.0825960  48.5340210   3.3605760
  38.4742610  49.1193330   3.2485100  50.3963980  51.2451730  15.2429240
  51.3485730  51.1609750  15.1929480  50.2492200  51.9093440  15.9163030
  37.8496790  43.8965030  15.6280470  38.3535810  43.3172310  16.1996700
  37.1104210  44.1805260  16.1656840  44.9034730  45.3036020  15.1615990
  44.1380400  45.8721020  15.0770660  45.0850690  45.0112230  14.2684220
  39.8819870  42.0394620  16.5230540  39.9225210  41.7408490  17.4315770
  40.7365370  42.4402230  16.3638060  41.8225680  40.6186720  14.4905030
  41.2922140  40.1277670  13.8628370  42.4913750  41.0470920  13.9562960
  42.3097980  37.5849090  14.5702320  42.2154850  36.9669840  13.8453190
  41.7295370  38.3115380  14.3432230  45.0759420  36.1422330  11.6029710
  44.6276720  36.1646590  10.7575260  44.4424620  35.7441350  12.2000010
  45.4818970  45.0376660  12.2242150  45.9007080  45.8809390  12.0518390
  44.5627600  45.1748700  11.9948930  43.3326390  51.3429670  13.3399880
  42.7947480  52.0675730  13.0208580  43.5860350  50.8660010  12.5497220
  44.5851640  39.3114190  14.8655810  45.1751330  39.0030040  15.5533630
  43.7671880  38.8393940  15.0215710  46.1888600  52.5780880  13.5986530
  46.1147300  53.4816020  13.9058900  45.2867440  52.2592780  13.5708600
  37.5915890  49.9055470   6.9020150  37.9218900  49.0376530   6.6698790
  38.0206890  50.1113990   7.7325110  42.1877810  48.2364480   4.5622120
  41.8873350  48.1129450   5.4626030  42.0815300  47.3773070   4.1537850
  38.0806100  50.7726060   9.6401780  37.6437090  50.9526860  10.4725930
  38.6483780  51.5300680   9.4983500  53.7168280  50.2743060  13.9279090
  53.1170270  50.3335620  13.1843010  53.8462180  49.3348040  14.0575940
  54.4126190  44.7608360   1.7683000  55.1745100  45.3305010   1.8742690
  54.4280560  44.1935560   2.5391310  37.9130530  43.2846290   5.9990660
  37.2579370  43.0157930   5.3550360  38.7508480  43.1750770   5.5492640
  55.4186160  45.6158460   6.6124930  55.7894990  44.8325780   6.2060900
  56.0588090  46.3047560   6.4342230  52.4019920  46.9995040  12.0255250
  51.5879760  47.4292200  12.2881040  52.8094120  47.6113450  11.4124300
  54.3610700  42.9911720   3.9184950  53.9854300  42.2239650   3.4866240
  53.6313820  43.3734420   4.4059880  38.9506460  43.6698860  10.5394000
  39.3179500  43.5826260  11.4190020  38.3817280  42.9065410  10.4400860
  38.5022460  40.5807950  14.4452420  37.6078510  40.5474710  14.7846130
  39.0420010  40.7794740  15.2103670  53.6361660  41.2169210   7.2192190
  54.1599140  40.7231860   6.5882360  54.2221080  41.3519570   7.9639760
  53.8151380  41.3009080  10.7411740  52.8654090  41.2672620  10.8556730
  53.9964390  42.2109190  10.5061510  53.1261630  40.4742560   3.1584600
  53.6220750  40.2413430   3.9433480  52.9277700  39.6354400   2.7422240
  39.0062170  34.8556280   8.7935640  39.6538360  34.3053660   8.3530800
  39.4264010  35.1099430   9.6151450  54.5548790  39.1103510   5.6922280
  54.4448070  38.9559550   6.6304550  55.3156380  38.5824450   5.4497690
  52.9014510  35.0497640  12.1505280  53.5386730  35.6631780  12.5164470
  53.0489400  35.0858300  11.2054510  52.4595970  51.7513640   5.5523520
  53.0555040  51.4298210   4.8757940  52.7174120  51.2785460   6.3436790
  38.7594170  35.0111950  11.5360960  38.4108990  35.4675770  12.3019140
  38.4281870  34.1169080  11.6183390  44.0664570  49.7391140  11.3023870
  43.8255930  50.0065700  10.4154390  45.0067210  49.9096870  11.3574730
  46.2718990  36.2023830  15.0580380  46.2107880  36.7945660  15.8075790
  47.2119370  36.0949790  14.9130640  48.9093550  35.8593890  14.6972670
  49.5233960  36.1773180  14.0353750  49.4543110  35.3742480  15.3168530
  55.3268730  51.7585520  12.1034510  54.8327010  52.1554390  11.3861640
  54.7182020  51.1334730  12.4971790  39.4314810  34.5388150  14.8111730
  39.9797800  34.3576200  14.0477840  39.4970120  33.7482260  15.3468040
  40.2046570  51.1293800  12.8211930  39.6106890  50.9978500  13.5601970
  40.1970410  50.2931940  12.3554030  49.6501590  34.4226030  11.0241960
  48.7761430  34.7561140  10.8214890  49.5412340  33.9499210  11.8493830
  50.5573570  36.6296900  12.4083680  50.2286930  35.8148660  12.0285410
  51.5055870  36.5866710  12.2849370  53.0108180  52.4008940   9.3821250
  52.5511150  53.1524750   9.0079270  52.3820640  51.6815410   9.3236050
  39.8358800  48.4952180  11.7719970  39.1092860  47.8757470  11.7045920
  39.8967950  48.8892790  10.9018050  43.4403900  50.7097180   8.5569380
  43.9568920  50.0984540   8.0317640  44.0901280  51.2125960   9.0480390
  46.1799400  51.6005670   9.3838360  46.4677210  51.3459970   8.5071370
  46.6922620  51.0483030   9.9743930  47.3976410  35.3395870   9.9634870
  46.6148200  35.8141370  10.2431630  47.1039340  34.4350700   9.8548050
  51.9497480  36.0418970   8.0083960  52.3905570  35.9864070   7.1605560
  51.6805070  36.9576980   8.0794140  53.8136050  35.6734210   6.0192780
  53.7524450  34.7295430   5.8723800  54.5928080  35.7814300   6.5646240
  38.1188800  51.8126570   4.9816730  37.9510840  51.1797250   5.6798620
  37.2523310  52.0185970   4.6310920  38.7416820  35.6443350   2.4848590
  39.4996180  35.7572230   1.9112620  38.2793990  36.4812550   2.4392020
  45.2830630  37.7582620   5.4750900  44.4705140  37.3839510   5.1346780
  45.7872270  37.0027700   5.7772090  49.7855610  34.4225070   6.7133970
  50.3884980  34.9945280   7.1882490  49.0448600  34.9864510   6.4907870
  52.9290210  34.8246630   1.9874250  53.1240840  35.7230080   2.2541680
  52.1420080  34.5933710   2.4807200  39.7251500  50.5059800   2.4266870
  39.1999120  50.8867830   1.7228830  39.6496080  51.1310570   3.1476580
  43.3079810  35.9082540   4.0795950  42.6782550  35.2069850   4.2466080
  42.7684950  36.6686670   3.8629110  54.4816820  52.0647340   3.7480810
  54.6569010  51.3785080   3.1041730  53.7838390  52.5894390   3.3557480
  43.4335370  35.1866520  16.5148440  43.1519640  35.6900120  15.7509260
  43.8155070  34.3888270  16.1490570  50.0350830  34.6020100  17.0928910
  49.9216280  34.9214710  17.9880430  50.8520570  35.0032610  16.7966190
  52.8149320  51.7491630  16.5747600  53.6074640  51.2540860  16.3673560
  53.1082470  52.4281770  17.1823210  48.9408980  23.8469080  81.3281100
  48.8603030  22.9323690  81.0572810  48.5273400  24.3436150  80.6220810
  47.0727020  25.6248100  83.2090370  46.2969120  25.1448540  83.4988940
  47.7239950  24.9453750  83.0346530  41.0892850  25.9367910  84.0866130
  40.2577730  25.6816620  84.4862640  41.6973830  26.0078680  84.8224050
  51.0934450  30.0308290  81.9889500  50.6315980  29.2595530  82.3176670
  51.9060000  30.0574360  82.4941950  41.0694110  29.9708000  84.2824150
  41.3722150  29.0805740  84.1034370  41.8137700  30.5278220  84.0546400
  39.4984800  20.8969800  77.8708520  38.6101500  21.2385770  77.7688400
  39.7825990  20.6970120  76.9789350  37.4617810  23.4975450  83.7548220
  38.0333920  22.7297650  83.7551860  37.4619350  23.7964210  82.8454830
  47.3197760  32.3166300  81.6093490  46.7009200  32.7723800  81.0387930
  48.1749540  32.4717760  81.2083190  46.5136010  28.3005290  83.2160530
  46.4444290  27.3595230  83.0549660  47.2755870  28.3906700  83.7883100
  38.7042680  18.9059810  85.5417150  38.5245520  18.0085560  85.8219910
  38.3022760  19.4531680  86.2164100  47.5441180  21.1075670  83.4429460
  47.9206000  20.2347550  83.3303130  47.4460690  21.4434370  82.5519900
  41.6746190  19.4801300  78.9046900  41.7812940  20.3805030  79.2115660
  40.7638550  19.4319270  78.6141550  51.3265300  18.6026110  80.3757800
  52.1474920  18.1122680  80.4183280  51.3599380  19.1923770  81.1289640
  39.3229350  21.4020310  84.1499490  40.0039460  21.6658680  84.7686890
  39.0077400  20.5621180  84.4837500  43.5153920  22.4487670  83.2372080
  44.0232140  22.9468640  83.8777100  44.0467160  21.6722870  83.0611440
  55.6164850  20.6192860  86.9401430  54.9117020  21.0074570  86.4216540
  55.8822770  21.3143150  87.5422360  41.7990020  17.0886230  87.5035500
  41.8008460  17.6058620  86.6981400  40.9694330  16.6116410  87.4805430
  48.1861110  27.2005540  79.0025400  47.5678380  27.6654990  78.4388120
  48.6984360  27.8933020  79.4194910  43.0492870  26.7281410  85.6809000
  42.7162250  27.3550330  86.3230070  43.2259550  27.2543290  84.9010670
  51.5626780  20.5426490  83.1485340  50.8582350  20.8311380  83.7288450
  51.9238940  21.3526600  82.7884900  41.4805350  18.7996190  85.5105950
  41.8222160  19.6438240  85.2159820  40.5421160  18.9479930  85.6271290
  42.2611970  28.6962210  87.4958180  42.8785970  29.3713290  87.2142630
  41.4005090  29.1050190  87.4045680  37.5544310  27.8862070  76.3765030
  37.1772290  28.3749170  75.6449930  37.8117380  28.5587350  77.0071560
  53.1789560  30.1601620  85.4112820  52.4953080  30.8300730  85.4029490
  53.7183850  30.3582270  84.6457680  54.6313700  19.9881280  83.5394550
  53.6838610  20.0220260  83.6709980  54.9563690  20.8020230  83.9243910
  45.1633240  16.2878460  81.8350540  45.4708220  15.7325350  81.1186040
  44.2333940  16.4222920  81.6523530  50.7148300  32.0045750  84.1258000
  50.7275460  31.6008040  83.2580260  50.1623520  32.7793040  84.0219430
  52.0093720  28.7261970  79.2148170  51.8990050  27.7836300  79.3397590
  52.0061970  29.0877610  80.1010930  50.1133740  26.9075590  85.4540610
  50.5302530  26.6935700  84.6194070  50.8373560  27.1648380  86.0249230
  47.5514000  24.3527290  78.5710660  46.6243280  24.2864670  78.7999130
  47.7038820  25.2907420  78.4565900  47.5383080  20.6244290  75.5677820
  46.5986750  20.7858250  75.6530280  47.8566340  21.3429970  75.0213810
  54.0595840  25.3062810  85.5456850  53.2314470  25.3755900  85.0706980
  54.6546320  25.8917120  85.0772680  51.5811290  25.9147590  79.0745910
  50.9623710  25.5767140  78.4272210  51.5635740  25.2707350  79.7825100
  51.0237850  22.0932130  86.4911720  50.6109030  22.9185840  86.7451710
  50.2913800  21.5077170  86.2988080  43.1570640  24.8792030  81.3530390
  42.7527640  24.1669280  80.8576290  43.2433760  24.5345270  82.2418430
  43.6252340  28.5659590  83.5169600  43.3280630  27.9605060  82.8377380
  44.5752160  28.6036900  83.4058960  41.8699260  21.6535240  85.1329430
  42.4213850  21.7630580  84.3582680  42.3842770  22.0272840  85.8484660
  51.7137950  32.1391460  87.1792700  51.2368510  32.9463650  86.9865310
  51.0299740  31.4869790  87.3318910  49.7575990  25.1534400  76.0818660
  50.1969270  24.3156830  75.9356480  50.4704410  25.7863800  76.1682800
  41.5441990  25.1754600  88.7434770  41.4049760  26.0477400  89.1122170
  40.6623350  24.8327410  88.5982710  47.8671370  30.0930470  80.0499900
  48.3067280  30.8354800  79.6355290  47.8058260  30.3357040  80.9738860
  53.3393130  16.4077210  74.3959700  53.0265790  16.5004040  75.2958770
  54.1005600  16.9858240  74.3457130  39.8575270  23.7737010  78.8537040
  39.7372870  24.4999100  78.2418310  39.5476160  23.0039920  78.3764950
  37.4960640  26.9452150  84.6605680  37.5741060  27.0800920  83.7161400
  38.1102320  26.2368040  84.8533800  38.7408270  28.6452340  81.0711860
  38.3336350  28.7866930  80.2165460  39.6321280  28.3612500  80.8683070
  48.5587150  32.7944250  87.9778910  49.0731820  32.7052260  88.7801340
  47.7156230  33.1403950  88.2706820  50.5341550  33.0799590  77.4062910
  50.3742690  32.7902530  78.3044740  50.3688260  32.3039720  76.8708140
  43.0129930  32.8598120  79.1834530  42.8372410  31.9433660  78.9702330
  42.1585670  33.2185410  79.4232330  50.2367680  30.5887150  75.9660910
  49.5432840  30.5864440  75.3063190  50.9790540  30.1646470  75.5355080
  49.8017610  32.2149860  80.0409400  50.2574560  31.4339240  80.3548020
  50.1410130  32.9256680  80.5850580  37.5520160  27.9866320  87.2000140
  37.7151200  27.5171680  86.3819510  38.0172610  27.4789880  87.8648980
  42.3238930  17.1172080  82.2360710  41.8807080  17.8981620  81.9045230
  42.8823920  17.4401970  82.9431650  46.6108740  19.9840600  87.8396030
  46.1488110  20.1923620  88.6515970  46.2086850  19.1699950  87.5366700
  45.4397750  16.7382780  77.1166540  44.8151930  16.7342650  77.8419850
  45.3527870  15.8713740  76.7202510  44.3614830  17.6619410  84.0950310
  44.6587160  18.5682240  84.0142330  44.9100390  17.1738190  83.4809880
  42.1153150  22.2405650  79.9641960  41.8894070  22.0242820  80.8688580
  41.3345680  22.6734110  79.6187930  49.3450910  22.2469020  78.5632610
  48.7459800  22.9704820  78.3796230  49.8930520  22.1845800  77.7809060
  47.9515780  20.8832560  80.5935890  48.3445350  21.2004760  79.7804580
  48.3132630  20.0044440  80.7080410  39.6862900  19.5504900  88.7836010
  39.2926290  20.3980110  88.9908790  38.9981300  18.9131270  88.9744650
  36.9879950  17.4733360  82.8166090  36.6993000  18.0436220  83.5291070
  37.7325710  16.9937810  83.1797320  37.1750180  21.4153480  74.0268810
  37.0924850  22.3584240  74.1683800  36.8233240  21.2728390  73.1481160
  48.5370920  23.4738310  84.6886670  47.8052040  23.9825120  85.0376770
  48.1395260  22.6568290  84.3875450  44.9748310  20.1492510  83.0939160
  44.9784370  19.7082460  82.2443700  45.8699430  20.4709840  83.2010980
  40.8250690  20.0319000  82.0533370  40.4850740  20.5094230  82.8100420
  40.0628010  19.5784120  81.6934470  45.0368460  21.1504590  76.0845920
  45.1581280  21.1091070  77.0331740  44.6516970  22.0128740  75.9292650
  48.9996830  18.9271990  84.1009610  49.0169570  19.3780640  84.9451460
  48.7512410  18.0277630  84.3143050  44.0489960  23.4605730  75.4829220
  43.4806860  23.0123980  74.8565130  44.7578960  23.8198510  74.9494370
  45.2756280  24.2094290  84.8404570  45.6426410  23.7352860  85.5865910
  45.0861340  25.0835860  85.1812910  38.1396770  18.9537980  80.9698040
  37.8543690  18.5893650  81.8076660  38.0775630  18.2218440  80.3561180
  43.0655650  23.2502930  87.1588780  42.7612720  24.1294910  87.3839140
  44.0202110  23.3102720  87.1946220  41.5937440  27.4563920  77.7555630
  40.8199700  26.9161540  77.5954350  42.3232070  26.9370530  77.4173390
  52.3525420  26.4529280  83.5482020  53.0724540  26.9484570  83.1578130
  52.1507240  25.7747170  82.9035890  47.8135360  17.8467240  77.6911410
  46.9999970  17.3480410  77.6156720  47.6197310  18.6865490  77.2747760
  50.5283750  22.2186890  75.9873570  51.4163370  22.5304120  75.8124910
  50.4988840  21.3459140  75.5954150  41.6374840  27.1244300  81.3934440
  42.1553510  26.3212560  81.3391330  41.1858860  27.0623440  82.2351270
  46.5244340  28.3910580  76.6661740  46.8660040  29.1352810  76.1705060
  45.6957050  28.7041700  77.0286570  39.1219380  24.0905670  88.3060140
  38.7634320  24.7559520  88.8933480  38.8273940  23.2589220  88.6772760
  52.7998020  23.5298730  75.4553430  52.7161740  23.9612950  74.6049870
  53.5192210  23.9897080  75.8880250  53.8772160  25.9866250  88.5323400
  53.1520350  26.5795030  88.3352790  54.4047620  25.9789790  87.7336770
  53.8285270  30.3840990  78.1835560  53.1861430  29.7296610  78.4579280
  53.4415930  30.7896080  77.4076230  49.4071750  27.7126420  82.0307250
  49.7595570  27.1154550  81.3708620  48.5234080  27.3870650  82.2015500
  45.4935030  28.4724110  79.4377660  46.1806160  29.0193320  79.8185250
  44.7067450  29.0164840  79.4727270  37.6327430  24.0896930  74.9294740
  38.5022280  24.3721730  75.2130660  37.1417750  24.9032800  74.8143550
  44.7962240  25.4770140  79.0503020  45.2525020  26.2875390  79.2763210
  44.4450450  25.1593280  79.8821510  47.0994850  30.9876480  86.2795320
  47.7437070  31.1935860  86.9568740  47.4624290  30.2264880  85.8266170
  40.6974020  15.8207790  79.5225540  40.5688650  15.8125690  80.4710460
  39.8736040  16.1590880  79.1716550  48.3726930  28.9908830  84.9972770
  49.0149160  28.2901990  85.1104940  48.8976280  29.7707270  84.8169660
  52.2182650  29.2757450  74.7211910  51.9920230  28.5587890  75.3136550
  51.8278850  29.0269890  73.8833660  50.1464550  29.7903730  88.2008830
  50.4820790  30.3770420  88.8786750  49.2264890  29.6596440  88.4306620
  37.9998680  33.3024310  75.4956370  38.3596320  33.9013650  74.8413640
  37.8591020  33.8484200  76.2691400  51.7998900  27.1929390  76.3826070
  51.5120600  27.6542080  77.1703950  52.5951070  26.7327160  76.6510290
  44.0167300  30.6855510  76.3130040  44.0077400  31.4185200  75.6974550
  43.0965660  30.4387090  76.4057000  39.6173940  25.9070400  77.0576800
  39.0101890  26.6469300  77.0672100  40.0923290  25.9969760  76.2315000
  49.1906730  20.0721220  86.7333690  49.5587550  19.2516430  87.0613260
  48.3304930  20.1323110  87.1489340  52.5568760  19.0278160  77.5421250
  51.9281920  19.1323830  76.8279480  52.0620680  19.2474940  78.3315130
  47.0026900  30.7483750  74.9755230  47.1038880  30.5447740  74.0457210
  46.1028640  30.4942030  75.1803010  44.5252790  21.3064110  78.9579130
  43.8168940  21.7750450  79.3992740  44.8097270  20.6486120  79.5924320
  46.1508720  22.7260810  86.9571660  46.6493970  23.2006630  87.6223510
  46.2931670  21.8024330  87.1641690  48.5568220  18.0314770  80.3974920
  48.4336000  18.0500900  79.4484430  49.5052780  18.0793710  80.5173320
  45.6445010  33.2670070  79.6702900  45.8986510  33.2291460  78.7482270
  44.6957490  33.1403400  79.6631150  42.7287810  19.6149190  76.3329840
  43.5778340  20.0519340  76.2670030  42.3619080  19.9269450  77.1601900
  53.3575580  18.9428770  87.8000050  52.8549180  19.6834170  88.1393860
  54.1732240  19.3312770  87.4836840  51.6497590  24.1861950  81.2461410
  50.7087730  24.2012180  81.4209100  51.9641660  23.3997910  81.6921710
  41.6279230  25.8681550  74.8065370  42.3942500  25.7562910  75.3690800
  41.7053920  25.1719520  74.1542140  40.3225990  23.3006620  75.4898260
  40.4029580  22.3534130  75.6015660  41.2145740  23.6313500  75.5958920
  53.6523170  31.3570800  82.9215670  53.7770590  32.1801970  83.3939480
  54.5188730  31.1461530  82.5739820  41.1240700  33.4502010  82.5932800
  41.8603180  32.9017470  82.8641370  41.5081620  34.3158020  82.4538790
  38.0086180  29.5175580  78.4674310  37.0825960  29.7596720  78.4579720
  38.4742610  30.3449840  78.3459060  44.2343010  32.6232320  74.4158370
  45.0271620  32.9121150  73.9640160  43.7147360  32.1924490  73.7370850
  53.2873180  31.8502450  75.8395110  53.0014690  31.4367590  75.0249290
  53.0892730  32.7790160  75.7195630  44.7520410  27.8435730  74.2800720
  44.6471050  27.2288080  75.0062100  44.5844630  27.3201620  73.4963730
  47.9923140  26.9055760  74.8842710  47.4433240  27.3525060  75.5285450
  48.6142400  26.4005010  75.4080380  43.6598260  25.8646680  76.7808010
  44.0814680  25.6986550  77.6239400  43.7849100  25.0546910  76.2863150
  46.1725900  24.8884290  74.0285110  46.6931560  24.1733310  73.6626260
  46.8194300  25.5270160  74.3285620  45.0759420  17.3678840  86.7003670
  44.6276720  17.3903100  85.8549220  44.4424620  16.9697860  87.2973970
  45.4818970  26.2633170  87.3216110  45.9007080  27.1065900  87.1492350
  44.5627600  26.4005210  87.0922890  50.1570770  24.5486540  87.2816460
  49.6305990  25.0729160  86.6781600  50.5002110  25.1813930  87.9126190
  42.5557160  21.9379910  73.7266170  42.3546220  21.0747270  74.0879510
  42.3849210  21.8513270  72.7887770  43.3326390  32.5686180  88.4373840
  42.7947480  33.2932240  88.1182540  43.5860350  32.0916520  87.6471180
  50.0345470  16.7488140  76.2553050  50.3147760  15.9056040  76.6112470
  49.2611200  16.9811250  76.7691800  41.3539960  19.0380530  73.7144050
  41.6565860  19.0447960  72.8063200  42.0934550  18.6878390  74.2111710
  46.1888600  33.8037390  88.6960490  46.1147300  34.7072530  89.0032860
  45.2867440  33.4849290  88.6682560  44.5724890  17.9815150  74.7000250
  44.2246890  17.3039140  74.1202700  44.7737660  17.5204660  75.5143640
  46.7373930  32.9695900  76.3186850  47.6324720  33.3080870  76.3405610
  46.7691560  32.2475310  75.6911130  40.3770090  28.3422950  74.5473850
  40.8144960  28.8852620  75.2031430  40.8617820  27.5169900  74.5570190
  37.5915890  31.1311980  81.9994110  37.9218900  30.2633040  81.7672750
  38.0206890  31.3370500  82.8299070  42.1877810  29.4620990  79.6596080
  41.8873350  29.3385960  80.5599990  42.0815300  28.6029580  79.2511810
  38.0806100  31.9982570  84.7375740  37.6437090  32.1783370  85.5699890
  38.6483780  32.7557190  84.5957460  54.9569730  29.2417390  74.3622760
  54.1262690  29.3094040  74.8329990  55.1341560  30.1321510  74.0589620
  54.4126190  25.9864870  76.8656960  55.1745100  26.5561520  76.9716650
  54.4280560  25.4192070  77.6365270  37.9130530  24.5102800  81.0964620
  37.2579370  24.2414440  80.4524320  38.7508480  24.4007280  80.6466600
  55.4186160  26.8414970  81.7098890  55.7894990  26.0582290  81.3034860
  56.0588090  27.5304070  81.5316190  52.4019920  28.2251550  87.1229210
  51.5879760  28.6548710  87.3855000  52.8094120  28.8369960  86.5098260
  54.4645360  26.2799240  74.0229480  54.7394200  27.1878120  73.8948700
  54.2756100  26.2161770  74.9591470  50.8620970  19.3044090  75.3183110
  51.2805850  19.1175070  74.4779770  50.5557030  18.4523140  75.6286040
  54.3610700  24.2168230  79.0158910  53.9854300  23.4496160  78.5840200
  53.6313820  24.5990930  79.5033840  38.9506460  24.8955370  85.6367960
  39.3179500  24.8082770  86.5163980  38.3817280  24.1321920  85.5374820
  53.7510320  23.3639750  88.6498430  53.5196410  23.1352500  87.7496380
  54.0114870  24.2839300  88.6043320  37.1268610  21.7201730  77.0389950
  36.2232690  21.9831930  76.8641610  37.6109230  21.9912900  76.2589910
  53.6361660  22.4425720  82.3166150  54.1599140  21.9488370  81.6856320
  54.2221080  22.5776080  83.0613720  53.8151380  22.5265590  85.8385700
  52.8654090  22.4929130  85.9530690  53.9964390  23.4365700  85.6035470
  39.6695820  20.7767270  74.9484330  40.3787520  20.3550490  74.4631610
  38.9535760  20.8442500  74.3167680  39.3169980  16.8306600  73.9886980
  40.0398110  17.3715540  74.3068200  39.5894500  16.5570020  73.1128520
  53.1261630  21.6999070  78.2558560  53.6220750  21.4669940  79.0407440
  52.9277700  20.8610910  77.8396200  39.0062170  16.0812790  83.8909600
  39.6538360  15.5310170  83.4504760  39.4264010  16.3355940  84.7125410
  54.5548790  20.3360020  80.7896240  54.4448070  20.1816060  81.7278510
  55.3156380  19.8080960  80.5471650  52.9014510  16.2754150  87.2479240
  53.5386730  16.8888290  87.6138430  53.0489400  16.3114810  86.3028470
  55.4439060  18.1667940  74.0302380  56.3688370  18.0349120  73.8220670
  55.4214850  18.2460760  74.9838830  55.5177550  18.9378600  76.6559090
  54.7229050  18.8723720  77.1852000  55.7220830  19.8729240  76.6444440
  52.4595970  32.9770150  80.6497480  53.0555040  32.6554720  79.9731900
  52.7174120  32.5041970  81.4410750  38.7594170  16.2368460  86.6334920
  38.4108990  16.6932280  87.3993100  38.4281870  15.3425590  86.7157350
  44.0664570  30.9647650  86.3997830  43.8255930  31.2322210  85.5128350
  45.0067210  31.1353380  86.4548690  55.3268730  32.9842030  87.2008470
  54.8327010  33.3810900  86.4835600  54.7182020  32.3591240  87.5945750
  40.2046570  32.3550310  87.9185890  39.6106890  32.2235010  88.6575930
  40.1970410  31.5188450  87.4527990  49.6501590  15.6482540  86.1215920
  48.7761430  15.9817650  85.9188850  49.5412340  15.1755720  86.9467790
  50.5573570  17.8553410  87.5057640  50.2286930  17.0405170  87.1259370
  51.5055870  17.8123220  87.3823330  53.0108180  33.6265450  84.4795210
  52.5511150  34.3781260  84.1053230  52.3820640  32.9071920  84.4210010
  39.8358800  29.7208690  86.8693930  39.1092860  29.1013980  86.8019880
  39.8967950  30.1149300  85.9992010  43.4403900  31.9353690  83.6543340
  43.9568920  31.3241050  83.1291600  44.0901280  32.4382470  84.1454350
  46.1799400  32.8262180  84.4812320  46.4677210  32.5716480  83.6045330
  46.6922620  32.2739540  85.0717890  47.3976410  16.5652380  85.0608830
  46.6148200  17.0397880  85.3405590  47.1039340  15.6607210  84.9522010
  51.9497480  17.2675480  83.1057920  52.3905570  17.2120580  82.2579520
  51.6805070  18.1833490  83.1768100  53.8136050  16.8990720  81.1166740
  53.7524450  15.9551940  80.9697760  54.5928080  17.0070810  81.6620200
  38.1188800  33.0383080  80.0790690  37.9510840  32.4053760  80.7772580
  37.2523310  33.2442480  79.7284880  38.7416820  16.8699860  77.5822550
  39.4996180  16.9828740  77.0086580  38.2793990  17.7069060  77.5365980
  45.2830630  18.9839130  80.5724860  44.4705140  18.6096020  80.2320740
  45.7872270  18.2284210  80.8746050  49.7855610  15.6481580  81.8107930
  50.3884980  16.2201790  82.2856450  49.0448600  16.2121020  81.5881830
  52.9290210  16.0503140  77.0848210  53.1240840  16.9486590  77.3515640
  52.1420080  15.8190220  77.5781160  39.7251500  31.7316310  77.5240830
  39.1999120  32.1124340  76.8202790  39.6496080  32.3567080  78.2450540
  41.1141970  17.3963910  76.1224520  41.6434730  16.6093710  75.9932470
  41.7470290  18.0755100  76.3560050  43.3079810  17.1339050  79.1769910
  42.6782550  16.4326360  79.3440040  42.7684950  17.8943180  78.9603070
  54.4816820  33.2903850  78.8454770  54.6569010  32.6041590  78.2015690
  53.7838390  33.8150900  78.4531440  42.3244470  33.6798690  76.3990080
  43.0563290  33.3957970  75.8513970  42.5838140  33.4411970  77.2889460
  41.4859260  29.7963420  76.4036410  40.8568140  30.2648520  76.9522240
  41.6007090  28.9512640  76.8382600  48.9408980  23.8469080  62.5537610
  48.8603030  22.9323690  62.2829320  48.5273400  24.3436150  61.8477320
  47.0727020  25.6248100  64.4346880  46.2969120  25.1448540  64.7245450
  47.7239950  24.9453750  64.2603040  41.0892850  25.9367910  65.3122640
  40.2577730  25.6816620  65.7119150  41.6973830  26.0078680  66.0480560
  51.0934450  30.0308290  63.2146010  50.6315980  29.2595530  63.5433180
  51.9060000  30.0574360  63.7198460  41.0694110  29.9708000  65.5080660
  41.3722150  29.0805740  65.3290880  41.8137700  30.5278220  65.2802910
  39.4984800  20.8969800  59.0965030  38.6101500  21.2385770  58.9944910
  39.7825990  20.6970120  58.2045860  37.4617810  23.4975450  64.9804730
  38.0333920  22.7297650  64.9808370  37.4619350  23.7964210  64.0711340
  47.3197760  32.3166300  62.8350000  46.7009200  32.7723800  62.2644440
  48.1749540  32.4717760  62.4339700  46.5136010  28.3005290  64.4417040
  46.4444290  27.3595230  64.2806170  47.2755870  28.3906700  65.0139610
  38.7042680  18.9059810  66.7673660  38.5245520  18.0085560  67.0476420
  38.3022760  19.4531680  67.4420610  47.5441180  21.1075670  64.6685970
  47.9206000  20.2347550  64.5559640  47.4460690  21.4434370  63.7776410
  41.6746190  19.4801300  60.1303410  41.7812940  20.3805030  60.4372170
  40.7638550  19.4319270  59.8398060  51.3265300  18.6026110  61.6014310
  52.1474920  18.1122680  61.6439790  51.3599380  19.1923770  62.3546150
  39.3229350  21.4020310  65.3756000  40.0039460  21.6658680  65.9943400
  39.0077400  20.5621180  65.7094010  43.5153920  22.4487670  64.4628590
  44.0232140  22.9468640  65.1033610  44.0467160  21.6722870  64.2867950
  55.6164850  20.6192860  68.1657940  54.9117020  21.0074570  67.6473050
  55.8822770  21.3143150  68.7678870  41.7990020  17.0886230  68.7292010
  41.8008460  17.6058620  67.9237910  40.9694330  16.6116410  68.7061940
  48.1861110  27.2005540  60.2281910  47.5678380  27.6654990  59.6644630
  48.6984360  27.8933020  60.6451420  43.0492870  26.7281410  66.9065510
  42.7162250  27.3550330  67.5486580  43.2259550  27.2543290  66.1267180
  51.5626780  20.5426490  64.3741850  50.8582350  20.8311380  64.9544960
  51.9238940  21.3526600  64.0141410  41.4805350  18.7996190  66.7362460
  41.8222160  19.6438240  66.4416330  40.5421160  18.9479930  66.8527800
  42.2611970  28.6962210  68.7214690  42.8785970  29.3713290  68.4399140
  41.4005090  29.1050190  68.6302190  53.1789560  30.1601620  66.6369330
  52.4953080  30.8300730  66.6286000  53.7183850  30.3582270  65.8714190
  54.6313700  19.9881280  64.7651060  53.6838610  20.0220260  64.8966490
  54.9563690  20.8020230  65.1500420  45.1633240  16.2878460  63.0607050
  45.4708220  15.7325350  62.3442550  44.2333940  16.4222920  62.8780040
  50.7148300  32.0045750  65.3514510  50.7275460  31.6008040  64.4836770
  50.1623520  32.7793040  65.2475940  52.0093720  28.7261970  60.4404680
  51.8990050  27.7836300  60.5654100  52.0061970  29.0877610  61.3267440
  50.1133740  26.9075590  66.6797120  50.5302530  26.6935700  65.8450580
  50.8373560  27.1648380  67.2505740  47.5514000  24.3527290  59.7967170
  46.6243280  24.2864670  60.0255640  47.7038820  25.2907420  59.6822410
  47.5383080  20.6244290  56.7934330  46.5986750  20.7858250  56.8786790
  47.8566340  21.3429970  56.2470320  54.0595840  25.3062810  66.7713360
  53.2314470  25.3755900  66.2963490  54.6546320  25.8917120  66.3029190
  51.5811290  25.9147590  60.3002420  50.9623710  25.5767140  59.6528720
  51.5635740  25.2707350  61.0081610  51.0237850  22.0932130  67.7168230
  50.6109030  22.9185840  67.9708220  50.2913800  21.5077170  67.5244590
  43.1570640  24.8792030  62.5786900  42.7527640  24.1669280  62.0832800
  43.2433760  24.5345270  63.4674940  43.6252340  28.5659590  64.7426110
  43.3280630  27.9605060  64.0633890  44.5752160  28.6036900  64.6315470
  41.8699260  21.6535240  66.3585940  42.4213850  21.7630580  65.5839190
  42.3842770  22.0272840  67.0741170  51.7137950  32.1391460  68.4049210
  51.2368510  32.9463650  68.2121820  51.0299740  31.4869790  68.5575420
  42.7170770  28.3041280  71.3933910  41.8199300  28.5281250  71.6407310
  42.7423640  28.4276220  70.4445310  41.5441990  25.1754600  69.9691280
  41.4049760  26.0477400  70.3378680  40.6623350  24.8327410  69.8239220
  47.8671370  30.0930470  61.2756410  48.3067280  30.8354800  60.8611800
  47.8058260  30.3357040  62.1995370  43.3422340  31.1176300  72.1776430
  43.3137770  31.5219250  71.3104860  43.1787310  30.1886660  72.0148030
  53.3393130  16.4077210  55.6216210  53.0265790  16.5004040  56.5215280
  54.1005600  16.9858240  55.5713640  39.8575270  23.7737010  60.0793550
  39.7372870  24.4999100  59.4674820  39.5476160  23.0039920  59.6021460
  55.2937160  31.9003400  73.4740600  55.7696880  32.3786290  74.1529680
  55.9144320  31.8320890  72.7486100  37.4960640  26.9452150  65.8862190
  37.5741060  27.0800920  64.9417910  38.1102320  26.2368040  66.0790310
  38.7408270  28.6452340  62.2968370  38.3336350  28.7866930  61.4421970
  39.6321280  28.3612500  62.0939580  54.6970410  29.0916250  70.6340610
  54.8233470  28.8528130  69.7157790  54.7391790  28.2600790  71.1062690
  48.5587150  32.7944250  69.2035420  49.0731820  32.7052260  70.0057850
  47.7156230  33.1403950  69.4963330  50.5341550  33.0799590  58.6319420
  50.3742690  32.7902530  59.5301250  50.3688260  32.3039720  58.0964650
  50.2367680  30.5887150  57.1917420  49.5432840  30.5864440  56.5319700
  50.9790540  30.1646470  56.7611590  49.8017610  32.2149860  61.2665910
  50.2574560  31.4339240  61.5804530  50.1410130  32.9256680  61.8107090
  54.5494420  21.1448710  71.5990350  53.9338690  21.6528380  71.0705810
  54.2290840  20.2447040  71.5416290  37.5520160  27.9866320  68.4256650
  37.7151200  27.5171680  67.6076020  38.0172610  27.4789880  69.0905490
  42.3238930  17.1172080  63.4617220  41.8807080  17.8981620  63.1301740
  42.8823920  17.4401970  64.1688160  46.6108740  19.9840600  69.0652540
  46.1488110  20.1923620  69.8772480  46.2086850  19.1699950  68.7623210
  51.6113250  21.2049550  70.1949200  50.7606840  20.9055300  70.5158270
  51.4515040  21.4491560  69.2833020  48.7062960  22.7051300  72.2947990
  49.0316370  21.8715050  71.9550220  49.4943290  23.2279820  72.4426320
  45.4397750  16.7382780  58.3423050  44.8151930  16.7342650  59.0676360
  45.3527870  15.8713740  57.9459020  44.3614830  17.6619410  65.3206820
  44.6587160  18.5682240  65.2398840  44.9100390  17.1738190  64.7066390
  42.1153150  22.2405650  61.1898470  41.8894070  22.0242820  62.0945090
  41.3345680  22.6734110  60.8444440  49.3450910  22.2469020  59.7889120
  48.7459800  22.9704820  59.6052740  49.8930520  22.1845800  59.0065570
  44.5552360  23.1391230  71.8558740  44.4595960  22.1985960  71.7059140
  45.3984340  23.3606300  71.4606810  47.9515780  20.8832560  61.8192400
  48.3445350  21.2004760  61.0061090  48.3132630  20.0044440  61.9336920
  39.6862900  19.5504900  70.0092520  39.2926290  20.3980110  70.2165300
  38.9981300  18.9131270  70.2001160  46.2607950  19.6339870  73.0789260
  45.5706270  19.4412070  73.7135350  47.0040250  19.9174510  73.6113560
  36.9879950  17.4733360  64.0422600  36.6993000  18.0436220  64.7547580
  37.7325710  16.9937810  64.4053830  37.1750180  21.4153480  55.2525320
  37.0924850  22.3584240  55.3940310  36.8233240  21.2728390  54.3737670
  48.5370920  23.4738310  65.9143180  47.8052040  23.9825120  66.2633280
  48.1395260  22.6568290  65.6131960  44.9748310  20.1492510  64.3195670
  44.9784370  19.7082460  63.4700210  45.8699430  20.4709840  64.4267490
  40.8250690  20.0319000  63.2789880  40.4850740  20.5094230  64.0356930
  40.0628010  19.5784120  62.9190980  45.0368460  21.1504590  57.3102430
  45.1581280  21.1091070  58.2588250  44.6516970  22.0128740  57.1549160
  48.9996830  18.9271990  65.3266120  49.0169570  19.3780640  66.1707970
  48.7512410  18.0277630  65.5399560  52.4267580  16.3404170  71.1652500
  52.7513350  15.6093830  71.6910480  52.4624090  16.0217810  70.2633490
  39.1259140  27.3617750  70.5852460  38.7413930  26.7211420  71.1835420
  39.4371330  28.0653870  71.1547190  45.2756280  24.2094290  66.0661080
  45.6426410  23.7352860  66.8122420  45.0861340  25.0835860  66.4069420
  38.1396770  18.9537980  62.1954550  37.8543690  18.5893650  63.0333170
  38.0775630  18.2218440  61.5817690  43.0655650  23.2502930  68.3845290
  42.7612720  24.1294910  68.6095650  44.0202110  23.3102720  68.4202730
  52.3525420  26.4529280  64.7738530  53.0724540  26.9484570  64.3834640
  52.1507240  25.7747170  64.1292400  47.8135360  17.8467240  58.9167920
  46.9999970  17.3480410  58.8413230  47.6197310  18.6865490  58.5004270
  47.7344220  26.5238340  70.6607530  47.6681530  25.6034010  70.4065120
  47.1049360  26.6213780  71.3752170  50.5283750  22.2186890  57.2130080
  51.4163370  22.5304120  57.0381420  50.4988840  21.3459140  56.8210660
  41.6374840  27.1244300  62.6190950  42.1553510  26.3212560  62.5647840
  41.1858860  27.0623440  63.4607780  39.1219380  24.0905670  69.5316650
  38.7634320  24.7559520  70.1189990  38.8273940  23.2589220  69.9029270
  42.3232500  24.5489910  72.4156200  42.0232640  24.6947090  71.5184020
  43.0943740  23.9895200  72.3229590  47.6660950  29.3458910  70.4111330
  47.6805490  28.4139870  70.1930240  46.9586050  29.4318670  71.0501100
  53.8772160  25.9866250  69.7579910  53.1520350  26.5795030  69.5609300
  54.4047620  25.9789790  68.9593280  53.8285270  30.3840990  59.4092070
  53.1861430  29.7296610  59.6835790  53.4415930  30.7896080  58.6332740
  49.4071750  27.7126420  63.2563760  49.7595570  27.1154550  62.5965130
  48.5234080  27.3870650  63.4272010  45.4935030  28.4724110  60.6634170
  46.1806160  29.0193320  61.0441760  44.7067450  29.0164840  60.6983780
  44.7962240  25.4770140  60.2759530  45.2525020  26.2875390  60.5019720
  44.4450450  25.1593280  61.1078020  47.0994850  30.9876480  67.5051830
  47.7437070  31.1935860  68.1825250  47.4624290  30.2264880  67.0522680
  40.6974020  15.8207790  60.7482050  40.5688650  15.8125690  61.6966970
  39.8736040  16.1590880  60.3973060  48.3726930  28.9908830  66.2229280
  49.0149160  28.2901990  66.3361450  48.8976280  29.7707270  66.0426170
  50.1464550  29.7903730  69.4265340  50.4820790  30.3770420  70.1043260
  49.2264890  29.6596440  69.6563130  37.6967950  17.5798910  70.2088750
  36.9826470  17.7795830  70.8141360  38.1162990  16.8038480  70.5803550
  37.9840540  31.5679170  71.1955280  38.0931660  30.6273910  71.0550670
  37.3321100  31.8333920  70.5469010  45.9753130  29.8395060  72.5953400
  45.6550000  29.1204300  73.1399090  45.3011490  30.5150130  72.6689460
  49.1906730  20.0721220  67.9590200  49.5587550  19.2516430  68.2869770
  48.3304930  20.1323110  68.3745850  52.5568760  19.0278160  58.7677760
  51.9281920  19.1323830  58.0535990  52.0620680  19.2474940  59.5571640
  44.5252790  21.3064110  60.1835640  43.8168940  21.7750450  60.6249250
  44.8097270  20.6486120  60.8180830  46.1508720  22.7260810  68.1828170
  46.6493970  23.2006630  68.8480020  46.2931670  21.8024330  68.3898200
  48.5568220  18.0314770  61.6231430  48.4336000  18.0500900  60.6740940
  49.5052780  18.0793710  61.7429830  42.7287810  19.6149190  57.5586350
  43.5778340  20.0519340  57.4926540  42.3619080  19.9269450  58.3858410
  53.3575580  18.9428770  69.0256560  52.8549180  19.6834170  69.3650370
  54.1732240  19.3312770  68.7093350  51.6497590  24.1861950  62.4717920
  50.7087730  24.2012180  62.6465610  51.9641660  23.3997910  62.9178220
  41.6279230  25.8681550  56.0321880  42.3942500  25.7562910  56.5947310
  41.7053920  25.1719520  55.3798650  40.3225990  23.3006620  56.7154770
  40.4029580  22.3534130  56.8272170  41.2145740  23.6313500  56.8215430
  53.6523170  31.3570800  64.1472180  53.7770590  32.1801970  64.6195990
  54.5188730  31.1461530  63.7996330  41.1240700  33.4502010  63.8189310
  41.8603180  32.9017470  64.0897880  41.5081620  34.3158020  63.6795300
  40.1298980  32.6348080  73.0074890  40.9311710  32.9560130  73.4210290
  39.6150800  32.2743660  73.7294800  48.9663610  28.7427950  72.9550300
  48.3601770  28.7659550  72.2146050  48.6617720  28.0110990  73.4917550
  50.3963980  32.4708240  71.5659710  51.3485730  32.3866260  71.5159950
  50.2492200  33.1349950  72.2393500  37.8496790  25.1221540  71.9510940
  38.3535810  24.5428820  72.5227170  37.1104210  25.4061770  72.4887310
  44.9034730  26.5292530  71.4846460  44.1380400  27.0977530  71.4001130
  45.0850690  26.2368740  70.5914690  52.0458080  28.2597860  72.0421480
  52.7867550  28.5973620  71.5388940  51.2830760  28.4289920  71.4891250
  39.8819870  23.2651130  72.8461010  39.9225210  22.9665000  73.7546240
  40.7365370  23.6658740  72.6868530  41.8225680  21.8443230  70.8135500
  41.2922140  21.3534180  70.1858840  42.4913750  22.2727430  70.2793430
  50.7203740  26.3112690  70.5776690  51.1344760  26.4657770  71.4267110
  49.7854740  26.4367910  70.7402470  51.1925910  23.6508850  72.5815840
  51.7746680  22.8961170  72.4936320  51.3687680  24.1816290  71.8047320
  42.3097980  18.8105600  70.8932790  42.2154850  18.1926350  70.1683660
  41.7295370  19.5371890  70.6662700  45.0759420  17.3678840  67.9260180
  44.6276720  17.3903100  67.0805730  44.4424620  16.9697860  68.5230480
  45.4818970  26.2633170  68.5472620  45.9007080  27.1065900  68.3748860
  44.5627600  26.4005210  68.3179400  47.8182870  23.9949350  69.9310460
  47.9379080  23.3990490  70.6705300  48.6776870  24.0319040  69.5111760
  50.1570770  24.5486540  68.5072970  49.6305990  25.0729160  67.9038110
  50.5002110  25.1813930  69.1382700  43.3326390  32.5686180  69.6630350
  42.7947480  33.2932240  69.3439050  43.5860350  32.0916520  68.8727690
  44.5851640  20.5370700  71.1886280  45.1751330  20.2286550  71.8764100
  43.7671880  20.0650450  71.3446180  49.4045070  20.1536510  71.4219300
  48.7160590  19.4918050  71.3569290  50.1251090  19.7074780  71.8667760
  50.0345470  16.7488140  57.4809560  50.3147760  15.9056040  57.8368980
  49.2611200  16.9811250  57.9948310  41.3539960  19.0380530  54.9400560
  41.6565860  19.0447960  54.0319710  42.0934550  18.6878390  55.4368220
  46.1888600  33.8037390  69.9217000  46.1147300  34.7072530  70.2289370
  45.2867440  33.4849290  69.8939070  44.5724890  17.9815150  55.9256760
  44.2246890  17.3039140  55.3459210  44.7737660  17.5204660  56.7400150
  37.5915890  31.1311980  63.2250620  37.9218900  30.2633040  62.9929260
  38.0206890  31.3370500  64.0555580  53.7168280  31.4999570  70.2509560
  53.1170270  31.5592130  69.5073480  53.8462180  30.5604550  70.3806410
  37.9130530  24.5102800  62.3221130  37.2579370  24.2414440  61.6780830
  38.7508480  24.4007280  61.8723110  55.4186160  26.8414970  62.9355400
  55.7894990  26.0582290  62.5291370  56.0588090  27.5304070  62.7572700
  52.4019920  28.2251550  68.3485720  51.5879760  28.6548710  68.6111510
  52.8094120  28.8369960  67.7354770  50.8620970  19.3044090  56.5439620
  51.2805850  19.1175070  55.7036280  50.5557030  18.4523140  56.8542550
  54.3610700  24.2168230  60.2415420  53.9854300  23.4496160  59.8096710
  53.6313820  24.5990930  60.7290350  38.9506460  24.8955370  66.8624470
  39.3179500  24.8082770  67.7420490  38.3817280  24.1321920  66.7631330
  53.7510320  23.3639750  69.8754940  53.5196410  23.1352500  68.9752890
  54.0114870  24.2839300  69.8299830  38.5022460  21.8064460  70.7682890
  37.6078510  21.7731220  71.1076600  39.0420010  22.0051250  71.5334140
  52.1898390  18.5896180  72.6534640  53.0668570  18.5979580  73.0368640
  52.2019230  17.8527020  72.0426990  37.1268610  21.7201730  58.2646460
  36.2232690  21.9831930  58.0898120  37.6109230  21.9912900  57.4846420
  53.6361660  22.4425720  63.5422660  54.1599140  21.9488370  62.9112830
  54.2221080  22.5776080  64.2870230  53.8151380  22.5265590  67.0642210
  52.8654090  22.4929130  67.1787200  53.9964390  23.4365700  66.8291980
  39.6695820  20.7767270  56.1740840  40.3787520  20.3550490  55.6888120
  38.9535760  20.8442500  55.5424190  39.3169980  16.8306600  55.2143490
  40.0398110  17.3715540  55.5324710  39.5894500  16.5570020  54.3385030
  53.1261630  21.6999070  59.4815070  53.6220750  21.4669940  60.2663950
  52.9277700  20.8610910  59.0652710  39.0062170  16.0812790  65.1166110
  39.6538360  15.5310170  64.6761270  39.4264010  16.3355940  65.9381920
  54.5548790  20.3360020  62.0152750  54.4448070  20.1816060  62.9535020
  55.3156380  19.8080960  61.7728160  52.9014510  16.2754150  68.4735750
  53.5386730  16.8888290  68.8394940  53.0489400  16.3114810  67.5284980
  55.4439060  18.1667940  55.2558890  56.3688370  18.0349120  55.0477180
  55.4214850  18.2460760  56.2095340  55.5177550  18.9378600  57.8815600
  54.7229050  18.8723720  58.4108510  55.7220830  19.8729240  57.8700950
  52.4595970  32.9770150  61.8753990  53.0555040  32.6554720  61.1988410
  52.7174120  32.5041970  62.6667260  38.7594170  16.2368460  67.8591430
  38.4108990  16.6932280  68.6249610  38.4281870  15.3425590  67.9413860
  40.3658540  29.4088060  72.0244620  40.3228170  29.0380970  72.9059080
  40.4969550  30.3465630  72.1646440  44.0664570  30.9647650  67.6254340
  43.8255930  31.2322210  66.7384860  45.0067210  31.1353380  67.6805200
  46.2718990  17.4280340  71.3810850  46.2107880  18.0202170  72.1306260
  47.2119370  17.3206300  71.2361110  48.9093550  17.0850400  71.0203140
  49.5233960  17.4029690  70.3584220  49.4543110  16.5998990  71.6399000
  55.3268730  32.9842030  68.4264980  54.8327010  33.3810900  67.7092110
  54.7182020  32.3591240  68.8202260  39.4314810  15.7644660  71.1342200
  39.9797800  15.5832710  70.3708310  39.4970120  14.9738770  71.6698510
  40.2046570  32.3550310  69.1442400  39.6106890  32.2235010  69.8832440
  40.1970410  31.5188450  68.6784500  49.6501590  15.6482540  67.3472430
  48.7761430  15.9817650  67.1445360  49.5412340  15.1755720  68.1724300
  50.5573570  17.8553410  68.7314150  50.2286930  17.0405170  68.3515880
  51.5055870  17.8123220  68.6079840  53.0108180  33.6265450  65.7051720
  52.5511150  34.3781260  65.3309740  52.3820640  32.9071920  65.6466520
  39.8358800  29.7208690  68.0950440  39.1092860  29.1013980  68.0276390
  39.8967950  30.1149300  67.2248520  43.4403900  31.9353690  64.8799850
  43.9568920  31.3241050  64.3548110  44.0901280  32.4382470  65.3710860
  46.1799400  32.8262180  65.7068830  46.4677210  32.5716480  64.8301840
  46.6922620  32.2739540  66.2974400  47.3976410  16.5652380  66.2865340
  46.6148200  17.0397880  66.5662100  47.1039340  15.6607210  66.1778520
  51.9497480  17.2675480  64.3314430  52.3905570  17.2120580  63.4836030
  51.6805070  18.1833490  64.4024610  53.8136050  16.8990720  62.3423250
  53.7524450  15.9551940  62.1954270  54.5928080  17.0070810  62.8876710
  38.7416820  16.8699860  58.8079060  39.4996180  16.9828740  58.2343090
  38.2793990  17.7069060  58.7622490  45.2830630  18.9839130  61.7981370
  44.4705140  18.6096020  61.4577250  45.7872270  18.2284210  62.1002560
  49.7855610  15.6481580  63.0364440  50.3884980  16.2201790  63.5112960
  49.0448600  16.2121020  62.8138340  52.9290210  16.0503140  58.3104720
  53.1240840  16.9486590  58.5772150  52.1420080  15.8190220  58.8037670
  41.1141970  17.3963910  57.3481030  41.6434730  16.6093710  57.2188980
  41.7470290  18.0755100  57.5816560  43.3079810  17.1339050  60.4026420
  42.6782550  16.4326360  60.5696550  42.7684950  17.8943180  60.1859580
  46.2471760  33.7478280  73.0737030  47.1739070  33.5122550  73.1172990
  46.2322190  34.5750280  72.5923060  54.4816820  33.2903850  60.0711280
  54.6569010  32.6041590  59.4272200  53.7838390  33.8150900  59.6787950
  43.4335370  16.4123030  72.8378910  43.1519640  16.9156630  72.0739730
  43.8155070  15.6144780  72.4721040  50.0350830  15.8276610  73.4159380
  49.9216280  16.1471220  74.3110900  50.8520570  16.2289120  73.1196660
  52.8149320  32.9748140  72.8978070  53.6074640  32.4797370  72.6904030
  53.1082470  33.6538280  73.5053680  51.3265300  18.6026110  42.8270820
  52.1474920  18.1122680  42.8696300  51.3599380  19.1923770  43.5802660
  55.6164850  20.6192860  49.3914450  54.9117020  21.0074570  48.8729560
  55.8822770  21.3143150  49.9935380  41.7990020  17.0886230  49.9548520
  41.8008460  17.6058620  49.1494420  40.9694330  16.6116410  49.9318450
  54.6313700  19.9881280  45.9907570  53.6838610  20.0220260  46.1223000
  54.9563690  20.8020230  46.3756930  53.3393130  16.4077210  36.8472720
  53.0265790  16.5004040  37.7471790  54.1005600  16.9858240  36.7970150
  54.5494420  21.1448710  52.8246860  53.9338690  21.6528380  52.2962320
  54.2290840  20.2447040  52.7672800  46.6108740  19.9840600  50.2909050
  46.1488110  20.1923620  51.1028990  46.2086850  19.1699950  49.9879720
  39.6862900  19.5504900  51.2349030  39.2926290  20.3980110  51.4421810
  38.9981300  18.9131270  51.4257670  46.2607950  19.6339870  54.3045770
  45.5706270  19.4412070  54.9391860  47.0040250  19.9174510  54.8370070
  48.9996830  18.9271990  46.5522630  49.0169570  19.3780640  47.3964480
  48.7512410  18.0277630  46.7656070  52.4267580  16.3404170  52.3909010
  52.7513350  15.6093830  52.9166990  52.4624090  16.0217810  51.4890000
  52.7998020  23.5298730  37.9066450  52.7161740  23.9612950  37.0562890
  53.5192210  23.9897080  38.3393270  53.8285270  30.3840990  40.6348580
  53.1861430  29.7296610  40.9092300  53.4415930  30.7896080  39.8589250
  52.2182650  29.2757450  37.1724930  51.9920230  28.5587890  37.7649570
  51.8278850  29.0269890  36.3346680  37.6967950  17.5798910  51.4345260
  36.9826470  17.7795830  52.0397870  38.1162990  16.8038480  51.8060060
  52.5568760  19.0278160  39.9934270  51.9281920  19.1323830  39.2792500
  52.0620680  19.2474940  40.7828150  53.3575580  18.9428770  50.2513070
  52.8549180  19.6834170  50.5906880  54.1732240  19.3312770  49.9349860
  39.8819870  23.2651130  54.0717520  39.9225210  22.9665000  54.9802750
  40.7365370  23.6658740  53.9125040  42.3097980  18.8105600  52.1189300
  42.2154850  18.1926350  51.3940170  41.7295370  19.5371890  51.8919210
  45.0759420  17.3678840  49.1516690  44.6276720  17.3903100  48.3062240
  44.4424620  16.9697860  49.7486990  44.5851640  20.5370700  52.4142790
  45.1751330  20.2286550  53.1020610  43.7671880  20.0650450  52.5702690
  49.4045070  20.1536510  52.6475810  48.7160590  19.4918050  52.5825800
  50.1251090  19.7074780  53.0924270  50.0345470  16.7488140  38.7066070
  50.3147760  15.9056040  39.0625490  49.2611200  16.9811250  39.2204820
  54.4126190  25.9864870  39.3169980  55.1745100  26.5561520  39.4229670
  54.4280560  25.4192070  40.0878290  54.4645360  26.2799240  36.4742500
  54.7394200  27.1878120  36.3461720  54.2756100  26.2161770  37.4104490
  54.3610700  24.2168230  41.4671930  53.9854300  23.4496160  41.0353220
  53.6313820  24.5990930  41.9546860  38.5022460  21.8064460  51.9939400
  37.6078510  21.7731220  52.3333110  39.0420010  22.0051250  52.7590650
  52.1898390  18.5896180  53.8791150  53.0668570  18.5979580  54.2625150
  52.2019230  17.8527020  53.2683500  53.1261630  21.6999070  40.7071580
  53.6220750  21.4669940  41.4920460  52.9277700  20.8610910  40.2909220
  54.5548790  20.3360020  43.2409260  54.4448070  20.1816060  44.1791530
  55.3156380  19.8080960  42.9984670  52.9014510  16.2754150  49.6992260
  53.5386730  16.8888290  50.0651450  53.0489400  16.3114810  48.7541490
  55.4439060  18.1667940  36.4815400  56.3688370  18.0349120  36.2733690
  55.4214850  18.2460760  37.4351850  55.5177550  18.9378600  39.1072110
  54.7229050  18.8723720  39.6365020  55.7220830  19.8729240  39.0957460
  38.7594170  16.2368460  49.0847940  38.4108990  16.6932280  49.8506120
  38.4281870  15.3425590  49.1670370  46.2718990  17.4280340  52.6067360
  46.2107880  18.0202170  53.3562770  47.2119370  17.3206300  52.4617620
  48.9093550  17.0850400  52.2459650  49.5233960  17.4029690  51.5840730
  49.4543110  16.5998990  52.8655510  39.4314810  15.7644660  52.3598710
  39.9797800  15.5832710  51.5964820  39.4970120  14.9738770  52.8955020
  49.6501590  15.6482540  48.5728940  48.7761430  15.9817650  48.3701870
  49.5412340  15.1755720  49.3980810  50.5573570  17.8553410  49.9570660
  50.2286930  17.0405170  49.5772390  51.5055870  17.8123220  49.8336350
  47.3976410  16.5652380  47.5121850  46.6148200  17.0397880  47.7918610
  47.1039340  15.6607210  47.4035030  51.9497480  17.2675480  45.5570940
  52.3905570  17.2120580  44.7092540  51.6805070  18.1833490  45.6281120
  53.8136050  16.8990720  43.5679760  53.7524450  15.9551940  43.4210780
  54.5928080  17.0070810  44.1133220  49.7855610  15.6481580  44.2620950
  50.3884980  16.2201790  44.7369470  49.0448600  16.2121020  44.0394850
  52.9290210  16.0503140  39.5361230  53.1240840  16.9486590  39.8028660
  52.1420080  15.8190220  40.0294180  43.4335370  16.4123030  54.0635420
  43.1519640  16.9156630  53.2996240  43.8155070  15.6144780  53.6977550
  50.0350830  15.8276610  54.6415890  49.9216280  16.1471220  55.5367410
  50.8520570  16.2289120  54.3453170  48.9408980  23.8469080  25.0050630
  48.8603030  22.9323690  24.7342340  48.5273400  24.3436150  24.2990340
  47.0727020  25.6248100  26.8859900  46.2969120  25.1448540  27.1758470
  47.7239950  24.9453750  26.7116060  41.0892850  25.9367910  27.7635660
  40.2577730  25.6816620  28.1632170  41.6973830  26.0078680  28.4993580
  51.0934450  30.0308290  25.6659030  50.6315980  29.2595530  25.9946200
  51.9060000  30.0574360  26.1711480  41.0694110  29.9708000  27.9593680
  41.3722150  29.0805740  27.7803900  41.8137700  30.5278220  27.7315930
  39.4984800  20.8969800  21.5478050  38.6101500  21.2385770  21.4457930
  39.7825990  20.6970120  20.6558880  37.4617810  23.4975450  27.4317750
  38.0333920  22.7297650  27.4321390  37.4619350  23.7964210  26.5224360
  47.3197760  32.3166300  25.2863020  46.7009200  32.7723800  24.7157460
  48.1749540  32.4717760  24.8852720  46.5136010  28.3005290  26.8930060
  46.4444290  27.3595230  26.7319190  47.2755870  28.3906700  27.4652630
  38.7042680  18.9059810  29.2186680  38.5245520  18.0085560  29.4989440
  38.3022760  19.4531680  29.8933630  47.5441180  21.1075670  27.1198990
  47.9206000  20.2347550  27.0072660  47.4460690  21.4434370  26.2289430
  41.6746190  19.4801300  22.5816430  41.7812940  20.3805030  22.8885190
  40.7638550  19.4319270  22.2911080  51.3265300  18.6026110  24.0527330
  52.1474920  18.1122680  24.0952810  51.3599380  19.1923770  24.8059170
  39.3229350  21.4020310  27.8269020  40.0039460  21.6658680  28.4456420
  39.0077400  20.5621180  28.1607030  43.5153920  22.4487670  26.9141610
  44.0232140  22.9468640  27.5546630  44.0467160  21.6722870  26.7380970
  55.6164850  20.6192860  30.6170960  54.9117020  21.0074570  30.0986070
  55.8822770  21.3143150  31.2191890  41.7990020  17.0886230  31.1805030
  41.8008460  17.6058620  30.3750930  40.9694330  16.6116410  31.1574960
  48.1861110  27.2005540  22.6794930  47.5678380  27.6654990  22.1157650
  48.6984360  27.8933020  23.0964440  43.0492870  26.7281410  29.3578530
  42.7162250  27.3550330  29.9999600  43.2259550  27.2543290  28.5780200
  51.5626780  20.5426490  26.8254870  50.8582350  20.8311380  27.4057980
  51.9238940  21.3526600  26.4654430  41.4805350  18.7996190  29.1875480
  41.8222160  19.6438240  28.8929350  40.5421160  18.9479930  29.3040820
  42.2611970  28.6962210  31.1727710  42.8785970  29.3713290  30.8912160
  41.4005090  29.1050190  31.0815210  37.5544310  27.8862070  20.0534560
  37.1772290  28.3749170  19.3219460  37.8117380  28.5587350  20.6841090
  53.1789560  30.1601620  29.0882350  52.4953080  30.8300730  29.0799020
  53.7183850  30.3582270  28.3227210  54.6313700  19.9881280  27.2164080
  53.6838610  20.0220260  27.3479510  54.9563690  20.8020230  27.6013440
  45.1633240  16.2878460  25.5120070  45.4708220  15.7325350  24.7955570
  44.2333940  16.4222920  25.3293060  52.0093720  28.7261970  22.8917700
  51.8990050  27.7836300  23.0167120  52.0061970  29.0877610  23.7780460
  50.1133740  26.9075590  29.1310140  50.5302530  26.6935700  28.2963600
  50.8373560  27.1648380  29.7018760  47.5514000  24.3527290  22.2480190
  46.6243280  24.2864670  22.4768660  47.7038820  25.2907420  22.1335430
  47.5383080  20.6244290  19.2447350  46.5986750  20.7858250  19.3299810
  47.8566340  21.3429970  18.6983340  54.0595840  25.3062810  29.2226380
  53.2314470  25.3755900  28.7476510  54.6546320  25.8917120  28.7542210
  51.5811290  25.9147590  22.7515440  50.9623710  25.5767140  22.1041740
  51.5635740  25.2707350  23.4594630  51.0237850  22.0932130  30.1681250
  50.6109030  22.9185840  30.4221240  50.2913800  21.5077170  29.9757610
  43.1570640  24.8792030  25.0299920  42.7527640  24.1669280  24.5345820
  43.2433760  24.5345270  25.9187960  43.6252340  28.5659590  27.1939130
  43.3280630  27.9605060  26.5146910  44.5752160  28.6036900  27.0828490
  41.8699260  21.6535240  28.8098960  42.4213850  21.7630580  28.0352210
  42.3842770  22.0272840  29.5254190  42.7170770  28.3041280  33.8446930
  41.8199300  28.5281250  34.0920330  42.7423640  28.4276220  32.8958330
  49.7575990  25.1534400  19.7588190  50.1969270  24.3156830  19.6126010
  50.4704410  25.7863800  19.8452330  41.5441990  25.1754600  32.4204300
  41.4049760  26.0477400  32.7891700  40.6623350  24.8327410  32.2752240
  47.8671370  30.0930470  23.7269430  48.3067280  30.8354800  23.3124820
  47.8058260  30.3357040  24.6508390  43.3422340  31.1176300  34.6289450
  43.3137770  31.5219250  33.7617880  43.1787310  30.1886660  34.4661050
  53.3393130  16.4077210  18.0729230  53.0265790  16.5004040  18.9728300
  54.1005600  16.9858240  18.0226660  39.8575270  23.7737010  22.5306570
  39.7372870  24.4999100  21.9187840  39.5476160  23.0039920  22.0534480
  37.4960640  26.9452150  28.3375210  37.5741060  27.0800920  27.3930930
  38.1102320  26.2368040  28.5303330  38.7408270  28.6452340  24.7481390
  38.3336350  28.7866930  23.8934990  39.6321280  28.3612500  24.5452600
  54.6970410  29.0916250  33.0853630  54.8233470  28.8528130  32.1670810
  54.7391790  28.2600790  33.5575710  50.5341550  33.0799590  21.0832440
  50.3742690  32.7902530  21.9814270  50.3688260  32.3039720  20.5477670
  43.0129930  32.8598120  22.8604060  42.8372410  31.9433660  22.6471860
  42.1585670  33.2185410  23.1001860  50.2367680  30.5887150  19.6430440
  49.5432840  30.5864440  18.9832720  50.9790540  30.1646470  19.2124610
  49.8017610  32.2149860  23.7178930  50.2574560  31.4339240  24.0317550
  50.1410130  32.9256680  24.2620110  54.5494420  21.1448710  34.0503370
  53.9338690  21.6528380  33.5218830  54.2290840  20.2447040  33.9929310
  37.5520160  27.9866320  30.8769670  37.7151200  27.5171680  30.0589040
  38.0172610  27.4789880  31.5418510  42.3238930  17.1172080  25.9130240
  41.8807080  17.8981620  25.5814760  42.8823920  17.4401970  26.6201180
  46.6108740  19.9840600  31.5165560  46.1488110  20.1923620  32.3285500
  46.2086850  19.1699950  31.2136230  51.6113250  21.2049550  32.6462220
  50.7606840  20.9055300  32.9671290  51.4515040  21.4491560  31.7346040
  45.4397750  16.7382780  20.7936070  44.8151930  16.7342650  21.5189380
  45.3527870  15.8713740  20.3972040  44.3614830  17.6619410  27.7719840
  44.6587160  18.5682240  27.6911860  44.9100390  17.1738190  27.1579410
  42.1153150  22.2405650  23.6411490  41.8894070  22.0242820  24.5458110
  41.3345680  22.6734110  23.2957460  49.3450910  22.2469020  22.2402140
  48.7459800  22.9704820  22.0565760  49.8930520  22.1845800  21.4578590
  47.9515780  20.8832560  24.2705420  48.3445350  21.2004760  23.4574110
  48.3132630  20.0044440  24.3849940  39.6862900  19.5504900  32.4605540
  39.2926290  20.3980110  32.6678320  38.9981300  18.9131270  32.6514180
  36.9879950  17.4733360  26.4935620  36.6993000  18.0436220  27.2060600
  37.7325710  16.9937810  26.8566850  37.1750180  21.4153480  17.7038340
  37.0924850  22.3584240  17.8453330  36.8233240  21.2728390  16.8250690
  48.5370920  23.4738310  28.3656200  47.8052040  23.9825120  28.7146300
  48.1395260  22.6568290  28.0644980  44.9748310  20.1492510  26.7708690
  44.9784370  19.7082460  25.9213230  45.8699430  20.4709840  26.8780510
  40.8250690  20.0319000  25.7302900  40.4850740  20.5094230  26.4869950
  40.0628010  19.5784120  25.3704000  45.0368460  21.1504590  19.7615450
  45.1581280  21.1091070  20.7101270  44.6516970  22.0128740  19.6062180
  48.9996830  18.9271990  27.7779140  49.0169570  19.3780640  28.6220990
  48.7512410  18.0277630  27.9912580  44.0489960  23.4605730  19.1598750
  43.4806860  23.0123980  18.5334660  44.7578960  23.8198510  18.6263900
  52.4267580  16.3404170  33.6165520  52.7513350  15.6093830  34.1423500
  52.4624090  16.0217810  32.7146510  39.1259140  27.3617750  33.0365480
  38.7413930  26.7211420  33.6348440  39.4371330  28.0653870  33.6060210
  45.2756280  24.2094290  28.5174100  45.6426410  23.7352860  29.2635440
  45.0861340  25.0835860  28.8582440  38.1396770  18.9537980  24.6467570
  37.8543690  18.5893650  25.4846190  38.0775630  18.2218440  24.0330710
  43.0655650  23.2502930  30.8358310  42.7612720  24.1294910  31.0608670
  44.0202110  23.3102720  30.8715750  41.5937440  27.4563920  21.4325160
  40.8199700  26.9161540  21.2723880  42.3232070  26.9370530  21.0942920
  52.3525420  26.4529280  27.2251550  53.0724540  26.9484570  26.8347660
  52.1507240  25.7747170  26.5805420  47.8135360  17.8467240  21.3680940
  46.9999970  17.3480410  21.2926250  47.6197310  18.6865490  20.9517290
  47.7344220  26.5238340  33.1120550  47.6681530  25.6034010  32.8578140
  47.1049360  26.6213780  33.8265190  50.5283750  22.2186890  19.6643100
  51.4163370  22.5304120  19.4894440  50.4988840  21.3459140  19.2723680
  41.6374840  27.1244300  25.0703970  42.1553510  26.3212560  25.0160860
  41.1858860  27.0623440  25.9120800  46.5244340  28.3910580  20.3431270
  46.8660040  29.1352810  19.8474590  45.6957050  28.7041700  20.7056100
  39.1219380  24.0905670  31.9829670  38.7634320  24.7559520  32.5703010
  38.8273940  23.2589220  32.3542290  52.7998020  23.5298730  19.1322960
  52.7161740  23.9612950  18.2819400  53.5192210  23.9897080  19.5649780
  53.8772160  25.9866250  32.2092930  53.1520350  26.5795030  32.0122320
  54.4047620  25.9789790  31.4106300  53.8285270  30.3840990  21.8605090
  53.1861430  29.7296610  22.1348810  53.4415930  30.7896080  21.0845760
  49.4071750  27.7126420  25.7076780  49.7595570  27.1154550  25.0478150
  48.5234080  27.3870650  25.8785030  45.4935030  28.4724110  23.1147190
  46.1806160  29.0193320  23.4954780  44.7067450  29.0164840  23.1496800
  37.6327430  24.0896930  18.6064270  38.5022280  24.3721730  18.8900190
  37.1417750  24.9032800  18.4913080  44.7962240  25.4770140  22.7272550
  45.2525020  26.2875390  22.9532740  44.4450450  25.1593280  23.5591040
  40.6974020  15.8207790  23.1995070  40.5688650  15.8125690  24.1479990
  39.8736040  16.1590880  22.8486080  48.3726930  28.9908830  28.6742300
  49.0149160  28.2901990  28.7874470  48.8976280  29.7707270  28.4939190
  52.2182650  29.2757450  18.3981440  51.9920230  28.5587890  18.9906080
  51.8278850  29.0269890  17.5603190  37.9998680  33.3024310  19.1725900
  38.3596320  33.9013650  18.5183170  37.8591020  33.8484200  19.9460930
  37.6967950  17.5798910  32.6601770  36.9826470  17.7795830  33.2654380
  38.1162990  16.8038480  33.0316570  51.7998900  27.1929390  20.0595600
  51.5120600  27.6542080  20.8473480  52.5951070  26.7327160  20.3279820
  37.9840540  31.5679170  33.6468300  38.0931660  30.6273910  33.5063690
  37.3321100  31.8333920  32.9982030  45.9753130  29.8395060  35.0466420
  45.6550000  29.1204300  35.5912110  45.3011490  30.5150130  35.1202480
  44.0167300  30.6855510  19.9899570  44.0077400  31.4185200  19.3744080
  43.0965660  30.4387090  20.0826530  39.6173940  25.9070400  20.7346330
  39.0101890  26.6469300  20.7441630  40.0923290  25.9969760  19.9084530
  49.1906730  20.0721220  30.4103220  49.5587550  19.2516430  30.7382790
  48.3304930  20.1323110  30.8258870  52.5568760  19.0278160  21.2190780
  51.9281920  19.1323830  20.5049010  52.0620680  19.2474940  22.0084660
  47.0026900  30.7483750  18.6524760  47.1038880  30.5447740  17.7226740
  46.1028640  30.4942030  18.8572540  44.5252790  21.3064110  22.6348660
  43.8168940  21.7750450  23.0762270  44.8097270  20.6486120  23.2693850
  46.1508720  22.7260810  30.6341190  46.6493970  23.2006630  31.2993040
  46.2931670  21.8024330  30.8411220  48.5568220  18.0314770  24.0744450
  48.4336000  18.0500900  23.1253960  49.5052780  18.0793710  24.1942850
  45.6445010  33.2670070  23.3472430  45.8986510  33.2291460  22.4251800
  44.6957490  33.1403400  23.3400680  42.7287810  19.6149190  20.0099370
  43.5778340  20.0519340  19.9439560  42.3619080  19.9269450  20.8371430
  53.3575580  18.9428770  31.4769580  52.8549180  19.6834170  31.8163390
  54.1732240  19.3312770  31.1606370  51.6497590  24.1861950  24.9230940
  50.7087730  24.2012180  25.0978630  51.9641660  23.3997910  25.3691240
  41.6279230  25.8681550  18.4834900  42.3942500  25.7562910  19.0460330
  41.7053920  25.1719520  17.8311670  40.3225990  23.3006620  19.1667790
  40.4029580  22.3534130  19.2785190  41.2145740  23.6313500  19.2728450
  53.6523170  31.3570800  26.5985200  53.7770590  32.1801970  27.0709010
  54.5188730  31.1461530  26.2509350  41.1240700  33.4502010  26.2702330
  41.8603180  32.9017470  26.5410900  41.5081620  34.3158020  26.1308320
  38.0086180  29.5175580  22.1443840  37.0825960  29.7596720  22.1349250
  38.4742610  30.3449840  22.0228590  44.2343010  32.6232320  18.0927900
  45.0271620  32.9121150  17.6409690  43.7147360  32.1924490  17.4140380
  53.2873180  31.8502450  19.5164640  53.0014690  31.4367590  18.7018820
  53.0892730  32.7790160  19.3965160  37.8496790  25.1221540  34.4023960
  38.3535810  24.5428820  34.9740190  37.1104210  25.4061770  34.9400330
  44.7520410  27.8435730  17.9570250  44.6471050  27.2288080  18.6831630
  44.5844630  27.3201620  17.1733260  47.9923140  26.9055760  18.5612240
  47.4433240  27.3525060  19.2054980  48.6142400  26.4005010  19.0849910
  52.0458080  28.2597860  34.4934500  52.7867550  28.5973620  33.9901960
  51.2830760  28.4289920  33.9404270  43.6598260  25.8646680  20.4577540
  44.0814680  25.6986550  21.3008930  43.7849100  25.0546910  19.9632680
  41.8225680  21.8443230  33.2648520  41.2922140  21.3534180  32.6371860
  42.4913750  22.2727430  32.7306450  46.1725900  24.8884290  17.7054640
  46.6931560  24.1733310  17.3395790  46.8194300  25.5270160  18.0055150
  50.7203740  26.3112690  33.0289710  51.1344760  26.4657770  33.8780130
  49.7854740  26.4367910  33.1915490  51.1925910  23.6508850  35.0328860
  51.7746680  22.8961170  34.9449340  51.3687680  24.1816290  34.2560340
  42.3097980  18.8105600  33.3445810  42.2154850  18.1926350  32.6196680
  41.7295370  19.5371890  33.1175720  45.0759420  17.3678840  30.3773200
  44.6276720  17.3903100  29.5318750  44.4424620  16.9697860  30.9743500
  45.4818970  26.2633170  30.9985640  45.9007080  27.1065900  30.8261880
  44.5627600  26.4005210  30.7692420  47.8182870  23.9949350  32.3823480
  47.9379080  23.3990490  33.1218320  48.6776870  24.0319040  31.9624780
  50.1570770  24.5486540  30.9585990  49.6305990  25.0729160  30.3551130
  50.5002110  25.1813930  31.5895720  42.5557160  21.9379910  17.4035700
  42.3546220  21.0747270  17.7649040  42.3849210  21.8513270  16.4657300
  43.3326390  32.5686180  32.1143370  42.7947480  33.2932240  31.7952070
  43.5860350  32.0916520  31.3240710  44.5851640  20.5370700  33.6399300
  45.1751330  20.2286550  34.3277120  43.7671880  20.0650450  33.7959200
  49.4045070  20.1536510  33.8732320  48.7160590  19.4918050  33.8082310
  50.1251090  19.7074780  34.3180780  50.0345470  16.7488140  19.9322580
  50.3147760  15.9056040  20.2882000  49.2611200  16.9811250  20.4461330
  41.3539960  19.0380530  17.3913580  41.6565860  19.0447960  16.4832730
  42.0934550  18.6878390  17.8881240  44.5724890  17.9815150  18.3769780
  44.2246890  17.3039140  17.7972230  44.7737660  17.5204660  19.1913170
  46.7373930  32.9695900  19.9956380  47.6324720  33.3080870  20.0175140
  46.7691560  32.2475310  19.3680660  40.3770090  28.3422950  18.2243380
  40.8144960  28.8852620  18.8800960  40.8617820  27.5169900  18.2339720
  37.5915890  31.1311980  25.6763640  37.9218900  30.2633040  25.4442280
  38.0206890  31.3370500  26.5068600  42.1877810  29.4620990  23.3365610
  41.8873350  29.3385960  24.2369520  42.0815300  28.6029580  22.9281340
  38.0806100  31.9982570  28.4145270  37.6437090  32.1783370  29.2469420
  38.6483780  32.7557190  28.2726990  54.9569730  29.2417390  18.0392290
  54.1262690  29.3094040  18.5099520  55.1341560  30.1321510  17.7359150
  54.4126190  25.9864870  20.5426490  55.1745100  26.5561520  20.6486180
  54.4280560  25.4192070  21.3134800  37.9130530  24.5102800  24.7734150
  37.2579370  24.2414440  24.1293850  38.7508480  24.4007280  24.3236130
  55.4186160  26.8414970  25.3868420  55.7894990  26.0582290  24.9804390
  56.0588090  27.5304070  25.2085720  52.4019920  28.2251550  30.7998740
  51.5879760  28.6548710  31.0624530  52.8094120  28.8369960  30.1867790
  54.4645360  26.2799240  17.6999010  54.7394200  27.1878120  17.5718230
  54.2756100  26.2161770  18.6361000  50.8620970  19.3044090  18.9952640
  51.2805850  19.1175070  18.1549300  50.5557030  18.4523140  19.3055570
  54.3610700  24.2168230  22.6928440  53.9854300  23.4496160  22.2609730
  53.6313820  24.5990930  23.1803370  38.9506460  24.8955370  29.3137490
  39.3179500  24.8082770  30.1933510  38.3817280  24.1321920  29.2144350
  53.7510320  23.3639750  32.3267960  53.5196410  23.1352500  31.4265910
  54.0114870  24.2839300  32.2812850  38.5022460  21.8064460  33.2195910
  37.6078510  21.7731220  33.5589620  39.0420010  22.0051250  33.9847160
  52.1898390  18.5896180  35.1047660  53.0668570  18.5979580  35.4881660
  52.2019230  17.8527020  34.4940010  37.1268610  21.7201730  20.7159480
  36.2232690  21.9831930  20.5411140  37.6109230  21.9912900  19.9359440
  53.6361660  22.4425720  25.9935680  54.1599140  21.9488370  25.3625850
  54.2221080  22.5776080  26.7383250  53.8151380  22.5265590  29.5155230
  52.8654090  22.4929130  29.6300220  53.9964390  23.4365700  29.2805000
  39.6695820  20.7767270  18.6253860  40.3787520  20.3550490  18.1401140
  38.9535760  20.8442500  17.9937210  39.3169980  16.8306600  17.6656510
  40.0398110  17.3715540  17.9837730  39.5894500  16.5570020  16.7898050
  53.1261630  21.6999070  21.9328090  53.6220750  21.4669940  22.7176970
  52.9277700  20.8610910  21.5165730  39.0062170  16.0812790  27.5679130
  39.6538360  15.5310170  27.1274290  39.4264010  16.3355940  28.3894940
  54.5548790  20.3360020  24.4665770  54.4448070  20.1816060  25.4048040
  55.3156380  19.8080960  24.2241180  52.9014510  16.2754150  30.9248770
  53.5386730  16.8888290  31.2907960  53.0489400  16.3114810  29.9798000
  55.4439060  18.1667940  17.7071910  56.3688370  18.0349120  17.4990200
  55.4214850  18.2460760  18.6608360  55.5177550  18.9378600  20.3328620
  54.7229050  18.8723720  20.8621530  55.7220830  19.8729240  20.3213970
  52.4595970  32.9770150  24.3267010  53.0555040  32.6554720  23.6501430
  52.7174120  32.5041970  25.1180280  38.7594170  16.2368460  30.3104450
  38.4108990  16.6932280  31.0762630  38.4281870  15.3425590  30.3926880
  40.3658540  29.4088060  34.4757640  40.3228170  29.0380970  35.3572100
  40.4969550  30.3465630  34.6159460  46.2718990  17.4280340  33.8323870
  46.2107880  18.0202170  34.5819280  47.2119370  17.3206300  33.6874130
  48.9093550  17.0850400  33.4716160  49.5233960  17.4029690  32.8097240
  49.4543110  16.5998990  34.0912020  39.4314810  15.7644660  33.5855220
  39.9797800  15.5832710  32.8221330  39.4970120  14.9738770  34.1211530
  40.2046570  32.3550310  31.5955420  39.6106890  32.2235010  32.3345460
  40.1970410  31.5188450  31.1297520  49.6501590  15.6482540  29.7985450
  48.7761430  15.9817650  29.5958380  49.5412340  15.1755720  30.6237320
  50.5573570  17.8553410  31.1827170  50.2286930  17.0405170  30.8028900
  51.5055870  17.8123220  31.0592860  39.8358800  29.7208690  30.5463460
  39.1092860  29.1013980  30.4789410  39.8967950  30.1149300  29.6761540
  43.4403900  31.9353690  27.3312870  43.9568920  31.3241050  26.8061130
  44.0901280  32.4382470  27.8223880  47.3976410  16.5652380  28.7378360
  46.6148200  17.0397880  29.0175120  47.1039340  15.6607210  28.6291540
  51.9497480  17.2675480  26.7827450  52.3905570  17.2120580  25.9349050
  51.6805070  18.1833490  26.8537630  53.8136050  16.8990720  24.7936270
  53.7524450  15.9551940  24.6467290  54.5928080  17.0070810  25.3389730
  38.1188800  33.0383080  23.7560220  37.9510840  32.4053760  24.4542110
  37.2523310  33.2442480  23.4054410  38.7416820  16.8699860  21.2592080
  39.4996180  16.9828740  20.6856110  38.2793990  17.7069060  21.2135510
  45.2830630  18.9839130  24.2494390  44.4705140  18.6096020  23.9090270
  45.7872270  18.2284210  24.5515580  49.7855610  15.6481580  25.4877460
  50.3884980  16.2201790  25.9625980  49.0448600  16.2121020  25.2651360
  52.9290210  16.0503140  20.7617740  53.1240840  16.9486590  21.0285170
  52.1420080  15.8190220  21.2550690  39.7251500  31.7316310  21.2010360
  39.1999120  32.1124340  20.4972320  39.6496080  32.3567080  21.9220070
  41.1141970  17.3963910  19.7994050  41.6434730  16.6093710  19.6702000
  41.7470290  18.0755100  20.0329580  43.3079810  17.1339050  22.8539440
  42.6782550  16.4326360  23.0209570  42.7684950  17.8943180  22.6372600
  43.4335370  16.4123030  35.2891930  43.1519640  16.9156630  34.5252750
  43.8155070  15.6144780  34.9234060  42.3244470  33.6798690  20.0759610
  43.0563290  33.3957970  19.5283500  42.5838140  33.4411970  20.9658990
  41.4859260  29.7963420  20.0805940  40.8568140  30.2648520  20.6291770
  41.6007090  28.9512640  20.5152130  50.0350830  15.8276610  35.8672400
  49.9216280  16.1471220  36.7623920  50.8520570  16.2289120  35.5709680
  48.9408980  23.8469080   6.2307140  48.8603030  22.9323690   5.9598850
  48.5273400  24.3436150   5.5246850  47.0727020  25.6248100   8.1116410
  46.2969120  25.1448540   8.4014980  47.7239950  24.9453750   7.9372570
  41.0892850  25.9367910   8.9892170  40.2577730  25.6816620   9.3888680
  41.6973830  26.0078680   9.7250090  51.0934450  30.0308290   6.8915540
  50.6315980  29.2595530   7.2202710  51.9060000  30.0574360   7.3967990
  41.0694110  29.9708000   9.1850190  41.3722150  29.0805740   9.0060410
  41.8137700  30.5278220   8.9572440  39.4984800  20.8969800   2.7734560
  38.6101500  21.2385770   2.6714440  39.7825990  20.6970120   1.8815390
  37.4617810  23.4975450   8.6574260  38.0333920  22.7297650   8.6577900
  37.4619350  23.7964210   7.7480870  47.3197760  32.3166300   6.5119530
  46.7009200  32.7723800   5.9413970  48.1749540  32.4717760   6.1109230
  46.5136010  28.3005290   8.1186570  46.4444290  27.3595230   7.9575700
  47.2755870  28.3906700   8.6909140  38.7042680  18.9059810  10.4443190
  38.5245520  18.0085560  10.7245950  38.3022760  19.4531680  11.1190140
  47.5441180  21.1075670   8.3455500  47.9206000  20.2347550   8.2329170
  47.4460690  21.4434370   7.4545940  41.6746190  19.4801300   3.8072940
  41.7812940  20.3805030   4.1141700  40.7638550  19.4319270   3.5167590
  51.3265300  18.6026110   5.2783840  52.1474920  18.1122680   5.3209320
  51.3599380  19.1923770   6.0315680  39.3229350  21.4020310   9.0525530
  40.0039460  21.6658680   9.6712930  39.0077400  20.5621180   9.3863540
  43.5153920  22.4487670   8.1398120  44.0232140  22.9468640   8.7803140
  44.0467160  21.6722870   7.9637480  55.6164850  20.6192860  11.8427470
  54.9117020  21.0074570  11.3242580  55.8822770  21.3143150  12.4448400
  41.7990020  17.0886230  12.4061540  41.8008460  17.6058620  11.6007440
  40.9694330  16.6116410  12.3831470  48.1861110  27.2005540   3.9051440
  47.5678380  27.6654990   3.3414160  48.6984360  27.8933020   4.3220950
  43.0492870  26.7281410  10.5835040  42.7162250  27.3550330  11.2256110
  43.2259550  27.2543290   9.8036710  51.5626780  20.5426490   8.0511380
  50.8582350  20.8311380   8.6314490  51.9238940  21.3526600   7.6910940
  41.4805350  18.7996190  10.4131990  41.8222160  19.6438240  10.1185860
  40.5421160  18.9479930  10.5297330  42.2611970  28.6962210  12.3984220
  42.8785970  29.3713290  12.1168670  41.4005090  29.1050190  12.3071720
  53.1789560  30.1601620  10.3138860  52.4953080  30.8300730  10.3055530
  53.7183850  30.3582270   9.5483720  54.6313700  19.9881280   8.4420590
  53.6838610  20.0220260   8.5736020  54.9563690  20.8020230   8.8269950
  45.1633240  16.2878460   6.7376580  45.4708220  15.7325350   6.0212080
  44.2333940  16.4222920   6.5549570  50.7148300  32.0045750   9.0284040
  50.7275460  31.6008040   8.1606300  50.1623520  32.7793040   8.9245470
  52.0093720  28.7261970   4.1174210  51.8990050  27.7836300   4.2423630
  52.0061970  29.0877610   5.0036970  50.1133740  26.9075590  10.3566650
  50.5302530  26.6935700   9.5220110  50.8373560  27.1648380  10.9275270
  47.5514000  24.3527290   3.4736700  46.6243280  24.2864670   3.7025170
  47.7038820  25.2907420   3.3591940  54.0595840  25.3062810  10.4482890
  53.2314470  25.3755900   9.9733020  54.6546320  25.8917120   9.9798720
  51.5811290  25.9147590   3.9771950  50.9623710  25.5767140   3.3298250
  51.5635740  25.2707350   4.6851140  51.0237850  22.0932130  11.3937760
  50.6109030  22.9185840  11.6477750  50.2913800  21.5077170  11.2014120
  43.1570640  24.8792030   6.2556430  42.7527640  24.1669280   5.7602330
  43.2433760  24.5345270   7.1444470  43.6252340  28.5659590   8.4195640
  43.3280630  27.9605060   7.7403420  44.5752160  28.6036900   8.3085000
  41.8699260  21.6535240  10.0355470  42.4213850  21.7630580   9.2608720
  42.3842770  22.0272840  10.7510700  51.7137950  32.1391460  12.0818740
  51.2368510  32.9463650  11.8891350  51.0299740  31.4869790  12.2344950
  42.7170770  28.3041280  15.0703440  41.8199300  28.5281250  15.3176840
  42.7423640  28.4276220  14.1214840  41.5441990  25.1754600  13.6460810
  41.4049760  26.0477400  14.0148210  40.6623350  24.8327410  13.5008750
  47.8671370  30.0930470   4.9525940  48.3067280  30.8354800   4.5381330
  47.8058260  30.3357040   5.8764900  43.3422340  31.1176300  15.8545960
  43.3137770  31.5219250  14.9874390  43.1787310  30.1886660  15.6917560
  39.8575270  23.7737010   3.7563080  39.7372870  24.4999100   3.1444350
  39.5476160  23.0039920   3.2790990  55.2937160  31.9003400  17.1510130
  55.7696880  32.3786290  17.8299210  55.9144320  31.8320890  16.4255630
  37.4960640  26.9452150   9.5631720  37.5741060  27.0800920   8.6187440
  38.1102320  26.2368040   9.7559840  38.7408270  28.6452340   5.9737900
  38.3336350  28.7866930   5.1191500  39.6321280  28.3612500   5.7709110
  54.6970410  29.0916250  14.3110140  54.8233470  28.8528130  13.3927320
  54.7391790  28.2600790  14.7832220  48.5587150  32.7944250  12.8804950
  49.0731820  32.7052260  13.6827380  47.7156230  33.1403950  13.1732860
  50.5341550  33.0799590   2.3088950  50.3742690  32.7902530   3.2070780
  50.3688260  32.3039720   1.7734180  43.0129930  32.8598120   4.0860570
  42.8372410  31.9433660   3.8728370  42.1585670  33.2185410   4.3258370
  49.8017610  32.2149860   4.9435440  50.2574560  31.4339240   5.2574060
  50.1410130  32.9256680   5.4876620  54.5494420  21.1448710  15.2759880
  53.9338690  21.6528380  14.7475340  54.2290840  20.2447040  15.2185820
  37.5520160  27.9866320  12.1026180  37.7151200  27.5171680  11.2845550
  38.0172610  27.4789880  12.7675020  42.3238930  17.1172080   7.1386750
  41.8807080  17.8981620   6.8071270  42.8823920  17.4401970   7.8457690
  46.6108740  19.9840600  12.7422070  46.1488110  20.1923620  13.5542010
  46.2086850  19.1699950  12.4392740  51.6113250  21.2049550  13.8718730
  50.7606840  20.9055300  14.1927800  51.4515040  21.4491560  12.9602550
  48.7062960  22.7051300  15.9717520  49.0316370  21.8715050  15.6319750
  49.4943290  23.2279820  16.1195850  44.3614830  17.6619410   8.9976350
  44.6587160  18.5682240   8.9168370  44.9100390  17.1738190   8.3835920
  42.1153150  22.2405650   4.8668000  41.8894070  22.0242820   5.7714620
  41.3345680  22.6734110   4.5213970  49.3450910  22.2469020   3.4658650
  48.7459800  22.9704820   3.2822270  49.8930520  22.1845800   2.6835100
  44.5552360  23.1391230  15.5328270  44.4595960  22.1985960  15.3828670
  45.3984340  23.3606300  15.1376340  47.9515780  20.8832560   5.4961930
  48.3445350  21.2004760   4.6830620  48.3132630  20.0044440   5.6106450
  39.6862900  19.5504900  13.6862050  39.2926290  20.3980110  13.8934830
  38.9981300  18.9131270  13.8770690  46.2607950  19.6339870  16.7558790
  45.5706270  19.4412070  17.3904880  47.0040250  19.9174510  17.2883090
  36.9879950  17.4733360   7.7192130  36.6993000  18.0436220   8.4317110
  37.7325710  16.9937810   8.0823360  48.5370920  23.4738310   9.5912710
  47.8052040  23.9825120   9.9402810  48.1395260  22.6568290   9.2901490
  44.9748310  20.1492510   7.9965200  44.9784370  19.7082460   7.1469740
  45.8699430  20.4709840   8.1037020  40.8250690  20.0319000   6.9559410
  40.4850740  20.5094230   7.7126460  40.0628010  19.5784120   6.5960510
  48.9996830  18.9271990   9.0035650  49.0169570  19.3780640   9.8477500
  48.7512410  18.0277630   9.2169090  52.4267580  16.3404170  14.8422030
  52.7513350  15.6093830  15.3680010  52.4624090  16.0217810  13.9403020
  39.1259140  27.3617750  14.2621990  38.7413930  26.7211420  14.8604950
  39.4371330  28.0653870  14.8316720  45.2756280  24.2094290   9.7430610
  45.6426410  23.7352860  10.4891950  45.0861340  25.0835860  10.0838950
  38.1396770  18.9537980   5.8724080  37.8543690  18.5893650   6.7102700
  38.0775630  18.2218440   5.2587220  43.0655650  23.2502930  12.0614820
  42.7612720  24.1294910  12.2865180  44.0202110  23.3102720  12.0972260
  41.5937440  27.4563920   2.6581670  40.8199700  26.9161540   2.4980390
  42.3232070  26.9370530   2.3199430  52.3525420  26.4529280   8.4508060
  53.0724540  26.9484570   8.0604170  52.1507240  25.7747170   7.8061930
  47.8135360  17.8467240   2.5937450  46.9999970  17.3480410   2.5182760
  47.6197310  18.6865490   2.1773800  47.7344220  26.5238340  14.3377060
  47.6681530  25.6034010  14.0834650  47.1049360  26.6213780  15.0521700
  41.6374840  27.1244300   6.2960480  42.1553510  26.3212560   6.2417370
  41.1858860  27.0623440   7.1377310  39.1219380  24.0905670  13.2086180
  38.7634320  24.7559520  13.7959520  38.8273940  23.2589220  13.5798800
  42.3232500  24.5489910  16.0925730  42.0232640  24.6947090  15.1953550
  43.0943740  23.9895200  15.9999120  47.6660950  29.3458910  14.0880860
  47.6805490  28.4139870  13.8699770  46.9586050  29.4318670  14.7270630
  53.8772160  25.9866250  13.4349440  53.1520350  26.5795030  13.2378830
  54.4047620  25.9789790  12.6362810  53.8285270  30.3840990   3.0861600
  53.1861430  29.7296610   3.3605320  53.4415930  30.7896080   2.3102270
  49.4071750  27.7126420   6.9333290  49.7595570  27.1154550   6.2734660
  48.5234080  27.3870650   7.1041540  45.4935030  28.4724110   4.3403700
  46.1806160  29.0193320   4.7211290  44.7067450  29.0164840   4.3753310
  44.7962240  25.4770140   3.9529060  45.2525020  26.2875390   4.1789250
  44.4450450  25.1593280   4.7847550  47.0994850  30.9876480  11.1821360
  47.7437070  31.1935860  11.8594780  47.4624290  30.2264880  10.7292210
  40.6974020  15.8207790   4.4251580  40.5688650  15.8125690   5.3736500
  39.8736040  16.1590880   4.0742590  48.3726930  28.9908830   9.8998810
  49.0149160  28.2901990  10.0130980  48.8976280  29.7707270   9.7195700
  50.1464550  29.7903730  13.1034870  50.4820790  30.3770420  13.7812790
  49.2264890  29.6596440  13.3332660  37.6967950  17.5798910  13.8858280
  36.9826470  17.7795830  14.4910890  38.1162990  16.8038480  14.2573080
  37.9840540  31.5679170  14.8724810  38.0931660  30.6273910  14.7320200
  37.3321100  31.8333920  14.2238540  45.9753130  29.8395060  16.2722930
  45.6550000  29.1204300  16.8168620  45.3011490  30.5150130  16.3458990
  49.1906730  20.0721220  11.6359730  49.5587550  19.2516430  11.9639300
  48.3304930  20.1323110  12.0515380  52.5568760  19.0278160   2.4447290
  51.9281920  19.1323830   1.7305520  52.0620680  19.2474940   3.2341170
  44.5252790  21.3064110   3.8605170  43.8168940  21.7750450   4.3018780
  44.8097270  20.6486120   4.4950360  46.1508720  22.7260810  11.8597700
  46.6493970  23.2006630  12.5249550  46.2931670  21.8024330  12.0667730
  48.5568220  18.0314770   5.3000960  48.4336000  18.0500900   4.3510470
  49.5052780  18.0793710   5.4199360  45.6445010  33.2670070   4.5728940
  45.8986510  33.2291460   3.6508310  44.6957490  33.1403400   4.5657190
  53.3575580  18.9428770  12.7026090  52.8549180  19.6834170  13.0419900
  54.1732240  19.3312770  12.3862880  51.6497590  24.1861950   6.1487450
  50.7087730  24.2012180   6.3235140  51.9641660  23.3997910   6.5947750
  53.6523170  31.3570800   7.8241710  53.7770590  32.1801970   8.2965520
  54.5188730  31.1461530   7.4765860  41.1240700  33.4502010   7.4958840
  41.8603180  32.9017470   7.7667410  41.5081620  34.3158020   7.3564830
  38.0086180  29.5175580   3.3700350  37.0825960  29.7596720   3.3605760
  38.4742610  30.3449840   3.2485100  40.1298980  32.6348080  16.6844420
  40.9311710  32.9560130  17.0979820  39.6150800  32.2743660  17.4064330
  48.9663610  28.7427950  16.6319830  48.3601770  28.7659550  15.8915580
  48.6617720  28.0110990  17.1687080  50.3963980  32.4708240  15.2429240
  51.3485730  32.3866260  15.1929480  50.2492200  33.1349950  15.9163030
  37.8496790  25.1221540  15.6280470  38.3535810  24.5428820  16.1996700
  37.1104210  25.4061770  16.1656840  44.9034730  26.5292530  15.1615990
  44.1380400  27.0977530  15.0770660  45.0850690  26.2368740  14.2684220
  52.0458080  28.2597860  15.7191010  52.7867550  28.5973620  15.2158470
  51.2830760  28.4289920  15.1660780  39.8819870  23.2651130  16.5230540
  39.9225210  22.9665000  17.4315770  40.7365370  23.6658740  16.3638060
  41.8225680  21.8443230  14.4905030  41.2922140  21.3534180  13.8628370
  42.4913750  22.2727430  13.9562960  50.7203740  26.3112690  14.2546220
  51.1344760  26.4657770  15.1036640  49.7854740  26.4367910  14.4172000
  51.1925910  23.6508850  16.2585370  51.7746680  22.8961170  16.1705850
  51.3687680  24.1816290  15.4816850  42.3097980  18.8105600  14.5702320
  42.2154850  18.1926350  13.8453190  41.7295370  19.5371890  14.3432230
  45.0759420  17.3678840  11.6029710  44.6276720  17.3903100  10.7575260
  44.4424620  16.9697860  12.2000010  45.4818970  26.2633170  12.2242150
  45.9007080  27.1065900  12.0518390  44.5627600  26.4005210  11.9948930
  47.8182870  23.9949350  13.6079990  47.9379080  23.3990490  14.3474830
  48.6776870  24.0319040  13.1881290  50.1570770  24.5486540  12.1842500
  49.6305990  25.0729160  11.5807640  50.5002110  25.1813930  12.8152230
  43.3326390  32.5686180  13.3399880  42.7947480  33.2932240  13.0208580
  43.5860350  32.0916520  12.5497220  44.5851640  20.5370700  14.8655810
  45.1751330  20.2286550  15.5533630  43.7671880  20.0650450  15.0215710
  49.4045070  20.1536510  15.0988830  48.7160590  19.4918050  15.0338820
  50.1251090  19.7074780  15.5437290  46.1888600  33.8037390  13.5986530
  46.1147300  34.7072530  13.9058900  45.2867440  33.4849290  13.5708600
  37.5915890  31.1311980   6.9020150  37.9218900  30.2633040   6.6698790
  38.0206890  31.3370500   7.7325110  42.1877810  29.4620990   4.5622120
  41.8873350  29.3385960   5.4626030  42.0815300  28.6029580   4.1537850
  38.0806100  31.9982570   9.6401780  37.6437090  32.1783370  10.4725930
  38.6483780  32.7557190   9.4983500  53.7168280  31.4999570  13.9279090
  53.1170270  31.5592130  13.1843010  53.8462180  30.5604550  14.0575940
  54.4126190  25.9864870   1.7683000  55.1745100  26.5561520   1.8742690
  54.4280560  25.4192070   2.5391310  37.9130530  24.5102800   5.9990660
  37.2579370  24.2414440   5.3550360  38.7508480  24.4007280   5.5492640
  55.4186160  26.8414970   6.6124930  55.7894990  26.0582290   6.2060900
  56.0588090  27.5304070   6.4342230  52.4019920  28.2251550  12.0255250
  51.5879760  28.6548710  12.2881040  52.8094120  28.8369960  11.4124300
  54.3610700  24.2168230   3.9184950  53.9854300  23.4496160   3.4866240
  53.6313820  24.5990930   4.4059880  38.9506460  24.8955370  10.5394000
  39.3179500  24.8082770  11.4190020  38.3817280  24.1321920  10.4400860
  53.7510320  23.3639750  13.5524470  53.5196410  23.1352500  12.6522420
  54.0114870  24.2839300  13.5069360  38.5022460  21.8064460  14.4452420
  37.6078510  21.7731220  14.7846130  39.0420010  22.0051250  15.2103670
  52.1898390  18.5896180  16.3304170  53.0668570  18.5979580  16.7138170
  52.2019230  17.8527020  15.7196520  53.6361660  22.4425720   7.2192190
  54.1599140  21.9488370   6.5882360  54.2221080  22.5776080   7.9639760
  53.8151380  22.5265590  10.7411740  52.8654090  22.4929130  10.8556730
  53.9964390  23.4365700  10.5061510  53.1261630  21.6999070   3.1584600
  53.6220750  21.4669940   3.9433480  52.9277700  20.8610910   2.7422240
  39.0062170  16.0812790   8.7935640  39.6538360  15.5310170   8.3530800
  39.4264010  16.3355940   9.6151450  54.5548790  20.3360020   5.6922280
  54.4448070  20.1816060   6.6304550  55.3156380  19.8080960   5.4497690
  52.9014510  16.2754150  12.1505280  53.5386730  16.8888290  12.5164470
  53.0489400  16.3114810  11.2054510  52.4595970  32.9770150   5.5523520
  53.0555040  32.6554720   4.8757940  52.7174120  32.5041970   6.3436790
  38.7594170  16.2368460  11.5360960  38.4108990  16.6932280  12.3019140
  38.4281870  15.3425590  11.6183390  40.3658540  29.4088060  15.7014150
  40.3228170  29.0380970  16.5828610  40.4969550  30.3465630  15.8415970
  44.0664570  30.9647650  11.3023870  43.8255930  31.2322210  10.4154390
  45.0067210  31.1353380  11.3574730  46.2718990  17.4280340  15.0580380
  46.2107880  18.0202170  15.8075790  47.2119370  17.3206300  14.9130640
  48.9093550  17.0850400  14.6972670  49.5233960  17.4029690  14.0353750
  49.4543110  16.5998990  15.3168530  55.3268730  32.9842030  12.1034510
  54.8327010  33.3810900  11.3861640  54.7182020  32.3591240  12.4971790
  39.4314810  15.7644660  14.8111730  39.9797800  15.5832710  14.0477840
  39.4970120  14.9738770  15.3468040  40.2046570  32.3550310  12.8211930
  39.6106890  32.2235010  13.5601970  40.1970410  31.5188450  12.3554030
  49.6501590  15.6482540  11.0241960  48.7761430  15.9817650  10.8214890
  49.5412340  15.1755720  11.8493830  50.5573570  17.8553410  12.4083680
  50.2286930  17.0405170  12.0285410  51.5055870  17.8123220  12.2849370
  53.0108180  33.6265450   9.3821250  52.5511150  34.3781260   9.0079270
  52.3820640  32.9071920   9.3236050  39.8358800  29.7208690  11.7719970
  39.1092860  29.1013980  11.7045920  39.8967950  30.1149300  10.9018050
  43.4403900  31.9353690   8.5569380  43.9568920  31.3241050   8.0317640
  44.0901280  32.4382470   9.0480390  46.1799400  32.8262180   9.3838360
  46.4677210  32.5716480   8.5071370  46.6922620  32.2739540   9.9743930
  47.3976410  16.5652380   9.9634870  46.6148200  17.0397880  10.2431630
  47.1039340  15.6607210   9.8548050  51.9497480  17.2675480   8.0083960
  52.3905570  17.2120580   7.1605560  51.6805070  18.1833490   8.0794140
  53.8136050  16.8990720   6.0192780  53.7524450  15.9551940   5.8723800
  54.5928080  17.0070810   6.5646240  38.1188800  33.0383080   4.9816730
  37.9510840  32.4053760   5.6798620  37.2523310  33.2442480   4.6310920
  38.7416820  16.8699860   2.4848590  39.4996180  16.9828740   1.9112620
  38.2793990  17.7069060   2.4392020  45.2830630  18.9839130   5.4750900
  44.4705140  18.6096020   5.1346780  45.7872270  18.2284210   5.7772090
  49.7855610  15.6481580   6.7133970  50.3884980  16.2201790   7.1882490
  49.0448600  16.2121020   6.4907870  52.9290210  16.0503140   1.9874250
  53.1240840  16.9486590   2.2541680  52.1420080  15.8190220   2.4807200
  39.7251500  31.7316310   2.4266870  39.1999120  32.1124340   1.7228830
  39.6496080  32.3567080   3.1476580  43.3079810  17.1339050   4.0795950
  42.6782550  16.4326360   4.2466080  42.7684950  17.8943180   3.8629110
  46.2471760  33.7478280  16.7506560  47.1739070  33.5122550  16.7942520
  46.2322190  34.5750280  16.2692590  54.4816820  33.2903850   3.7480810
  54.6569010  32.6041590   3.1041730  53.7838390  33.8150900   3.3557480
  43.4335370  16.4123030  16.5148440  43.1519640  16.9156630  15.7509260
  43.8155070  15.6144780  16.1490570  50.0350830  15.8276610  17.0928910
  49.9216280  16.1471220  17.9880430  50.8520570  16.2289120  16.7966190
  52.8149320  32.9748140  16.5747600  53.6074640  32.4797370  16.3673560
  53.1082470  33.6538280  17.1823210  48.9408980   5.0725590  81.3281100
  48.8603030   4.1580200  81.0572810  48.5273400   5.5692660  80.6220810
  47.0727020   6.8504610  83.2090370  46.2969120   6.3705050  83.4988940
  47.7239950   6.1710260  83.0346530  41.0892850   7.1624420  84.0866130
  40.2577730   6.9073130  84.4862640  41.6973830   7.2335190  84.8224050
  51.0934450  11.2564800  81.9889500  50.6315980  10.4852040  82.3176670
  51.9060000  11.2830870  82.4941950  41.0694110  11.1964510  84.2824150
  41.3722150  10.3062250  84.1034370  41.8137700  11.7534730  84.0546400
  39.4984800   2.1226310  77.8708520  38.6101500   2.4642280  77.7688400
  39.7825990   1.9226630  76.9789350  37.4617810   4.7231960  83.7548220
  38.0333920   3.9554160  83.7551860  37.4619350   5.0220720  82.8454830
  47.3197760  13.5422810  81.6093490  46.7009200  13.9980310  81.0387930
  48.1749540  13.6974270  81.2083190  46.5136010   9.5261800  83.2160530
  46.4444290   8.5851740  83.0549660  47.2755870   9.6163210  83.7883100
  39.3229350   2.6276820  84.1499490  40.0039460   2.8915190  84.7686890
  39.0077400   1.7877690  84.4837500  43.5153920   3.6744180  83.2372080
  44.0232140   4.1725150  83.8777100  44.0467160   2.8979380  83.0611440
  55.6164850   1.8449370  86.9401430  54.9117020   2.2331080  86.4216540
  55.8822770   2.5399660  87.5422360  48.1861110   8.4262050  79.0025400
  47.5678380   8.8911500  78.4388120  48.6984360   9.1189530  79.4194910
  43.0492870   7.9537920  85.6809000  42.7162250   8.5806840  86.3230070
  43.2259550   8.4799800  84.9010670  51.5626780   1.7683000  83.1485340
  50.8582350   2.0567890  83.7288450  51.9238940   2.5783110  82.7884900
  42.2611970   9.9218720  87.4958180  42.8785970  10.5969800  87.2142630
  41.4005090  10.3306700  87.4045680  37.5544310   9.1118580  76.3765030
  37.1772290   9.6005680  75.6449930  37.8117380   9.7843860  77.0071560
  53.1789560  11.3858130  85.4112820  52.4953080  12.0557240  85.4029490
  53.7183850  11.5838780  84.6457680  50.7148300  13.2302260  84.1258000
  50.7275460  12.8264550  83.2580260  50.1623520  14.0049550  84.0219430
  52.0093720   9.9518480  79.2148170  51.8990050   9.0092810  79.3397590
  52.0061970  10.3134120  80.1010930  50.1133740   8.1332100  85.4540610
  50.5302530   7.9192210  84.6194070  50.8373560   8.3904890  86.0249230
  47.5514000   5.5783800  78.5710660  46.6243280   5.5121180  78.7999130
  47.7038820   6.5163930  78.4565900  47.5383080   1.8500800  75.5677820
  46.5986750   2.0114760  75.6530280  47.8566340   2.5686480  75.0213810
  54.0595840   6.5319320  85.5456850  53.2314470   6.6012410  85.0706980
  54.6546320   7.1173630  85.0772680  51.5811290   7.1404100  79.0745910
  50.9623710   6.8023650  78.4272210  51.5635740   6.4963860  79.7825100
  51.0237850   3.3188640  86.4911720  50.6109030   4.1442350  86.7451710
  50.2913800   2.7333680  86.2988080  43.1570640   6.1048540  81.3530390
  42.7527640   5.3925790  80.8576290  43.2433760   5.7601780  82.2418430
  43.6252340   9.7916100  83.5169600  43.3280630   9.1861570  82.8377380
  44.5752160   9.8293410  83.4058960  41.8699260   2.8791750  85.1329430
  42.4213850   2.9887090  84.3582680  42.3842770   3.2529350  85.8484660
  51.7137950  13.3647970  87.1792700  51.2368510  14.1720160  86.9865310
  51.0299740  12.7126300  87.3318910  49.7575990   6.3790910  76.0818660
  50.1969270   5.5413340  75.9356480  50.4704410   7.0120310  76.1682800
  41.5441990   6.4011110  88.7434770  41.4049760   7.2733910  89.1122170
  40.6623350   6.0583920  88.5982710  47.8671370  11.3186980  80.0499900
  48.3067280  12.0611310  79.6355290  47.8058260  11.5613550  80.9738860
  39.8575270   4.9993520  78.8537040  39.7372870   5.7255610  78.2418310
  39.5476160   4.2296430  78.3764950  37.4960640   8.1708660  84.6605680
  37.5741060   8.3057430  83.7161400  38.1102320   7.4624550  84.8533800
  38.7408270   9.8708850  81.0711860  38.3336350  10.0123440  80.2165460
  39.6321280   9.5869010  80.8683070  48.5587150  14.0200760  87.9778910
  49.0731820  13.9308770  88.7801340  47.7156230  14.3660460  88.2706820
  50.5341550  14.3056100  77.4062910  50.3742690  14.0159040  78.3044740
  50.3688260  13.5296230  76.8708140  43.0129930  14.0854630  79.1834530
  42.8372410  13.1690170  78.9702330  42.1585670  14.4441920  79.4232330
  50.2367680  11.8143660  75.9660910  49.5432840  11.8120950  75.3063190
  50.9790540  11.3902980  75.5355080  49.8017610  13.4406370  80.0409400
  50.2574560  12.6595750  80.3548020  50.1410130  14.1513190  80.5850580
  37.5520160   9.2122830  87.2000140  37.7151200   8.7428190  86.3819510
  38.0172610   8.7046390  87.8648980  42.1153150   3.4662160  79.9641960
  41.8894070   3.2499330  80.8688580  41.3345680   3.8990620  79.6187930
  49.3450910   3.4725530  78.5632610  48.7459800   4.1961330  78.3796230
  49.8930520   3.4102310  77.7809060  37.1750180   2.6409990  74.0268810
  37.0924850   3.5840750  74.1683800  36.8233240   2.4984900  73.1481160
  48.5370920   4.6994820  84.6886670  47.8052040   5.2081630  85.0376770
  48.1395260   3.8824800  84.3875450  45.0368460   2.3761100  76.0845920
  45.1581280   2.3347580  77.0331740  44.6516970   3.2385250  75.9292650
  44.0489960   4.6862240  75.4829220  43.4806860   4.2380490  74.8565130
  44.7578960   5.0455020  74.9494370  45.2756280   5.4350800  84.8404570
  45.6426410   4.9609370  85.5865910  45.0861340   6.3092370  85.1812910
  43.0655650   4.4759440  87.1588780  42.7612720   5.3551420  87.3839140
  44.0202110   4.5359230  87.1946220  41.5937440   8.6820430  77.7555630
  40.8199700   8.1418050  77.5954350  42.3232070   8.1627040  77.4173390
  52.3525420   7.6785790  83.5482020  53.0724540   8.1741080  83.1578130
  52.1507240   7.0003680  82.9035890  50.5283750   3.4443400  75.9873570
  51.4163370   3.7560630  75.8124910  50.4988840   2.5715650  75.5954150
  41.6374840   8.3500810  81.3934440  42.1553510   7.5469070  81.3391330
  41.1858860   8.2879950  82.2351270  46.5244340   9.6167090  76.6661740
  46.8660040  10.3609320  76.1705060  45.6957050   9.9298210  77.0286570
  39.1219380   5.3162180  88.3060140  38.7634320   5.9816030  88.8933480
  38.8273940   4.4845730  88.6772760  52.7998020   4.7555240  75.4553430
  52.7161740   5.1869460  74.6049870  53.5192210   5.2153590  75.8880250
  53.8772160   7.2122760  88.5323400  53.1520350   7.8051540  88.3352790
  54.4047620   7.2046300  87.7336770  53.8285270  11.6097500  78.1835560
  53.1861430  10.9553120  78.4579280  53.4415930  12.0152590  77.4076230
  49.4071750   8.9382930  82.0307250  49.7595570   8.3411060  81.3708620
  48.5234080   8.6127160  82.2015500  45.4935030   9.6980620  79.4377660
  46.1806160  10.2449830  79.8185250  44.7067450  10.2421350  79.4727270
  37.6327430   5.3153440  74.9294740  38.5022280   5.5978240  75.2130660
  37.1417750   6.1289310  74.8143550  44.7962240   6.7026650  79.0503020
  45.2525020   7.5131900  79.2763210  44.4450450   6.3849790  79.8821510
  47.0994850  12.2132990  86.2795320  47.7437070  12.4192370  86.9568740
  47.4624290  11.4521390  85.8266170  48.3726930  10.2165340  84.9972770
  49.0149160   9.5158500  85.1104940  48.8976280  10.9963780  84.8169660
  52.2182650  10.5013960  74.7211910  51.9920230   9.7844400  75.3136550
  51.8278850  10.2526400  73.8833660  50.1464550  11.0160240  88.2008830
  50.4820790  11.6026930  88.8786750  49.2264890  10.8852950  88.4306620
  37.9998680  14.5280820  75.4956370  38.3596320  15.1270160  74.8413640
  37.8591020  15.0740710  76.2691400  51.7998900   8.4185900  76.3826070
  51.5120600   8.8798590  77.1703950  52.5951070   7.9583670  76.6510290
  44.0167300  11.9112020  76.3130040  44.0077400  12.6441710  75.6974550
  43.0965660  11.6643600  76.4057000  39.6173940   7.1326910  77.0576800
  39.0101890   7.8725810  77.0672100  40.0923290   7.2226270  76.2315000
  47.0026900  11.9740260  74.9755230  47.1038880  11.7704250  74.0457210
  46.1028640  11.7198540  75.1803010  44.5252790   2.5320620  78.9579130
  43.8168940   3.0006960  79.3992740  44.8097270   1.8742630  79.5924320
  46.1508720   3.9517320  86.9571660  46.6493970   4.4263140  87.6223510
  46.2931670   3.0280840  87.1641690  45.6445010  14.4926580  79.6702900
  45.8986510  14.4547970  78.7482270  44.6957490  14.3659910  79.6631150
  51.6497590   5.4118460  81.2461410  50.7087730   5.4268690  81.4209100
  51.9641660   4.6254420  81.6921710  41.6279230   7.0938060  74.8065370
  42.3942500   6.9819420  75.3690800  41.7053920   6.3976030  74.1542140
  40.3225990   4.5263130  75.4898260  40.4029580   3.5790640  75.6015660
  41.2145740   4.8570010  75.5958920  53.6523170  12.5827310  82.9215670
  53.7770590  13.4058480  83.3939480  54.5188730  12.3718040  82.5739820
  41.1240700  14.6758520  82.5932800  41.8603180  14.1273980  82.8641370
  41.5081620  15.5414530  82.4538790  38.0086180  10.7432090  78.4674310
  37.0825960  10.9853230  78.4579720  38.4742610  11.5706350  78.3459060
  44.2343010  13.8488830  74.4158370  45.0271620  14.1377660  73.9640160
  43.7147360  13.4181000  73.7370850  53.2873180  13.0758960  75.8395110
  53.0014690  12.6624100  75.0249290  53.0892730  14.0046670  75.7195630
  44.7520410   9.0692240  74.2800720  44.6471050   8.4544590  75.0062100
  44.5844630   8.5458130  73.4963730  47.9923140   8.1312270  74.8842710
  47.4433240   8.5781570  75.5285450  48.6142400   7.6261520  75.4080380
  43.6598260   7.0903190  76.7808010  44.0814680   6.9243060  77.6239400
  43.7849100   6.2803420  76.2863150  46.1725900   6.1140800  74.0285110
  46.6931560   5.3989820  73.6626260  46.8194300   6.7526670  74.3285620
  45.4818970   7.4889680  87.3216110  45.9007080   8.3322410  87.1492350
  44.5627600   7.6261720  87.0922890  50.1570770   5.7743050  87.2816460
  49.6305990   6.2985670  86.6781600  50.5002110   6.4070440  87.9126190
  42.5557160   3.1636420  73.7266170  42.3546220   2.3003780  74.0879510
  42.3849210   3.0769780  72.7887770  43.3326390  13.7942690  88.4373840
  42.7947480  14.5188750  88.1182540  43.5860350  13.3173030  87.6471180
  46.1888600  15.0293900  88.6960490  46.1147300  15.9329040  89.0032860
  45.2867440  14.7105800  88.6682560  46.7373930  14.1952410  76.3186850
  47.6324720  14.5337380  76.3405610  46.7691560  13.4731820  75.6911130
  40.3770090   9.5679460  74.5473850  40.8144960  10.1109130  75.2031430
  40.8617820   8.7426410  74.5570190  37.5915890  12.3568490  81.9994110
  37.9218900  11.4889550  81.7672750  38.0206890  12.5627010  82.8299070
  42.1877810  10.6877500  79.6596080  41.8873350  10.5642470  80.5599990
  42.0815300   9.8286090  79.2511810  38.0806100  13.2239080  84.7375740
  37.6437090  13.4039880  85.5699890  38.6483780  13.9813700  84.5957460
  54.9569730  10.4673900  74.3622760  54.1262690  10.5350550  74.8329990
  55.1341560  11.3578020  74.0589620  54.4126190   7.2121380  76.8656960
  55.1745100   7.7818030  76.9716650  54.4280560   6.6448580  77.6365270
  37.9130530   5.7359310  81.0964620  37.2579370   5.4670950  80.4524320
  38.7508480   5.6263790  80.6466600  55.4186160   8.0671480  81.7098890
  55.7894990   7.2838800  81.3034860  56.0588090   8.7560580  81.5316190
  52.4019920   9.4508060  87.1229210  51.5879760   9.8805220  87.3855000
  52.8094120  10.0626470  86.5098260  54.4645360   7.5055750  74.0229480
  54.7394200   8.4134630  73.8948700  54.2756100   7.4418280  74.9591470
  54.3610700   5.4424740  79.0158910  53.9854300   4.6752670  78.5840200
  53.6313820   5.8247440  79.5033840  38.9506460   6.1211880  85.6367960
  39.3179500   6.0339280  86.5163980  38.3817280   5.3578430  85.5374820
  53.7510320   4.5896260  88.6498430  53.5196410   4.3609010  87.7496380
  54.0114870   5.5095810  88.6043320  37.1268610   2.9458240  77.0389950
  36.2232690   3.2088440  76.8641610  37.6109230   3.2169410  76.2589910
  53.6361660   3.6682230  82.3166150  54.1599140   3.1744880  81.6856320
  54.2221080   3.8032590  83.0613720  53.8151380   3.7522100  85.8385700
  52.8654090   3.7185640  85.9530690  53.9964390   4.6622210  85.6035470
  53.1261630   2.9255580  78.2558560  53.6220750   2.6926450  79.0407440
  52.9277700   2.0867420  77.8396200  52.4595970  14.2026660  80.6497480
  53.0555040  13.8811230  79.9731900  52.7174120  13.7298480  81.4410750
  44.0664570  12.1904160  86.3997830  43.8255930  12.4578720  85.5128350
  45.0067210  12.3609890  86.4548690  55.3268730  14.2098540  87.2008470
  54.8327010  14.6067410  86.4835600  54.7182020  13.5847750  87.5945750
  40.2046570  13.5806820  87.9185890  39.6106890  13.4491520  88.6575930
  40.1970410  12.7444960  87.4527990  53.0108180  14.8521960  84.4795210
  52.5511150  15.6037770  84.1053230  52.3820640  14.1328430  84.4210010
  39.8358800  10.9465200  86.8693930  39.1092860  10.3270490  86.8019880
  39.8967950  11.3405810  85.9992010  43.4403900  13.1610200  83.6543340
  43.9568920  12.5497560  83.1291600  44.0901280  13.6638980  84.1454350
  46.1799400  14.0518690  84.4812320  46.4677210  13.7972990  83.6045330
  46.6922620  13.4996050  85.0717890  38.1188800  14.2639590  80.0790690
  37.9510840  13.6310270  80.7772580  37.2523310  14.4698990  79.7284880
  39.7251500  12.9572820  77.5240830  39.1999120  13.3380850  76.8202790
  39.6496080  13.5823590  78.2450540  54.4816820  14.5160360  78.8454770
  54.6569010  13.8298100  78.2015690  53.7838390  15.0407410  78.4531440
  42.3244470  14.9055200  76.3990080  43.0563290  14.6214480  75.8513970
  42.5838140  14.6668480  77.2889460  41.4859260  11.0219930  76.4036410
  40.8568140  11.4905030  76.9522240  41.6007090  10.1769150  76.8382600
  48.9408980   5.0725590  62.5537610  48.8603030   4.1580200  62.2829320
  48.5273400   5.5692660  61.8477320  47.0727020   6.8504610  64.4346880
  46.2969120   6.3705050  64.7245450  47.7239950   6.1710260  64.2603040
  41.0892850   7.1624420  65.3122640  40.2577730   6.9073130  65.7119150
  41.6973830   7.2335190  66.0480560  51.0934450  11.2564800  63.2146010
  50.6315980  10.4852040  63.5433180  51.9060000  11.2830870  63.7198460
  41.0694110  11.1964510  65.5080660  41.3722150  10.3062250  65.3290880
  41.8137700  11.7534730  65.2802910  39.4984800   2.1226310  59.0965030
  38.6101500   2.4642280  58.9944910  39.7825990   1.9226630  58.2045860
  37.4617810   4.7231960  64.9804730  38.0333920   3.9554160  64.9808370
  37.4619350   5.0220720  64.0711340  47.3197760  13.5422810  62.8350000
  46.7009200  13.9980310  62.2644440  48.1749540  13.6974270  62.4339700
  46.5136010   9.5261800  64.4417040  46.4444290   8.5851740  64.2806170
  47.2755870   9.6163210  65.0139610  39.3229350   2.6276820  65.3756000
  40.0039460   2.8915190  65.9943400  39.0077400   1.7877690  65.7094010
  43.5153920   3.6744180  64.4628590  44.0232140   4.1725150  65.1033610
  44.0467160   2.8979380  64.2867950  55.6164850   1.8449370  68.1657940
  54.9117020   2.2331080  67.6473050  55.8822770   2.5399660  68.7678870
  48.1861110   8.4262050  60.2281910  47.5678380   8.8911500  59.6644630
  48.6984360   9.1189530  60.6451420  43.0492870   7.9537920  66.9065510
  42.7162250   8.5806840  67.5486580  43.2259550   8.4799800  66.1267180
  51.5626780   1.7683000  64.3741850  50.8582350   2.0567890  64.9544960
  51.9238940   2.5783110  64.0141410  42.2611970   9.9218720  68.7214690
  42.8785970  10.5969800  68.4399140  41.4005090  10.3306700  68.6302190
  37.5544310   9.1118580  57.6021540  37.1772290   9.6005680  56.8706440
  37.8117380   9.7843860  58.2328070  53.1789560  11.3858130  66.6369330
  52.4953080  12.0557240  66.6286000  53.7183850  11.5838780  65.8714190
  50.7148300  13.2302260  65.3514510  50.7275460  12.8264550  64.4836770
  50.1623520  14.0049550  65.2475940  52.0093720   9.9518480  60.4404680
  51.8990050   9.0092810  60.5654100  52.0061970  10.3134120  61.3267440
  50.1133740   8.1332100  66.6797120  50.5302530   7.9192210  65.8450580
  50.8373560   8.3904890  67.2505740  47.5514000   5.5783800  59.7967170
  46.6243280   5.5121180  60.0255640  47.7038820   6.5163930  59.6822410
  47.5383080   1.8500800  56.7934330  46.5986750   2.0114760  56.8786790
  47.8566340   2.5686480  56.2470320  54.0595840   6.5319320  66.7713360
  53.2314470   6.6012410  66.2963490  54.6546320   7.1173630  66.3029190
  51.5811290   7.1404100  60.3002420  50.9623710   6.8023650  59.6528720
  51.5635740   6.4963860  61.0081610  51.0237850   3.3188640  67.7168230
  50.6109030   4.1442350  67.9708220  50.2913800   2.7333680  67.5244590
  43.1570640   6.1048540  62.5786900  42.7527640   5.3925790  62.0832800
  43.2433760   5.7601780  63.4674940  43.6252340   9.7916100  64.7426110
  43.3280630   9.1861570  64.0633890  44.5752160   9.8293410  64.6315470
  41.8699260   2.8791750  66.3585940  42.4213850   2.9887090  65.5839190
  42.3842770   3.2529350  67.0741170  51.7137950  13.3647970  68.4049210
  51.2368510  14.1720160  68.2121820  51.0299740  12.7126300  68.5575420
  42.7170770   9.5297790  71.3933910  41.8199300   9.7537760  71.6407310
  42.7423640   9.6532730  70.4445310  49.7575990   6.3790910  57.3075170
  50.1969270   5.5413340  57.1612990  50.4704410   7.0120310  57.3939310
  41.5441990   6.4011110  69.9691280  41.4049760   7.2733910  70.3378680
  40.6623350   6.0583920  69.8239220  47.8671370  11.3186980  61.2756410
  48.3067280  12.0611310  60.8611800  47.8058260  11.5613550  62.1995370
  43.3422340  12.3432810  72.1776430  43.3137770  12.7475760  71.3104860
  43.1787310  11.4143170  72.0148030  39.8575270   4.9993520  60.0793550
  39.7372870   5.7255610  59.4674820  39.5476160   4.2296430  59.6021460
  55.2937160  13.1259910  73.4740600  55.7696880  13.6042800  74.1529680
  55.9144320  13.0577400  72.7486100  37.4960640   8.1708660  65.8862190
  37.5741060   8.3057430  64.9417910  38.1102320   7.4624550  66.0790310
  38.7408270   9.8708850  62.2968370  38.3336350  10.0123440  61.4421970
  39.6321280   9.5869010  62.0939580  54.6970410  10.3172760  70.6340610
  54.8233470  10.0784640  69.7157790  54.7391790   9.4857300  71.1062690
  48.5587150  14.0200760  69.2035420  49.0731820  13.9308770  70.0057850
  47.7156230  14.3660460  69.4963330  50.5341550  14.3056100  58.6319420
  50.3742690  14.0159040  59.5301250  50.3688260  13.5296230  58.0964650
  43.0129930  14.0854630  60.4091040  42.8372410  13.1690170  60.1958840
  42.1585670  14.4441920  60.6488840  50.2367680  11.8143660  57.1917420
  49.5432840  11.8120950  56.5319700  50.9790540  11.3902980  56.7611590
  49.8017610  13.4406370  61.2665910  50.2574560  12.6595750  61.5804530
  50.1410130  14.1513190  61.8107090  37.5520160   9.2122830  68.4256650
  37.7151200   8.7428190  67.6076020  38.0172610   8.7046390  69.0905490
  51.6113250   2.4306060  70.1949200  50.7606840   2.1311810  70.5158270
  51.4515040   2.6748070  69.2833020  48.7062960   3.9307810  72.2947990
  49.0316370   3.0971560  71.9550220  49.4943290   4.4536330  72.4426320
  42.1153150   3.4662160  61.1898470  41.8894070   3.2499330  62.0945090
  41.3345680   3.8990620  60.8444440  49.3450910   3.4725530  59.7889120
  48.7459800   4.1961330  59.6052740  49.8930520   3.4102310  59.0065570
  44.5552360   4.3647740  71.8558740  44.4595960   3.4242470  71.7059140
  45.3984340   4.5862810  71.4606810  37.1750180   2.6409990  55.2525320
  37.0924850   3.5840750  55.3940310  36.8233240   2.4984900  54.3737670
  48.5370920   4.6994820  65.9143180  47.8052040   5.2081630  66.2633280
  48.1395260   3.8824800  65.6131960  45.0368460   2.3761100  57.3102430
  45.1581280   2.3347580  58.2588250  44.6516970   3.2385250  57.1549160
  44.0489960   4.6862240  56.7085730  43.4806860   4.2380490  56.0821640
  44.7578960   5.0455020  56.1750880  39.1259140   8.5874260  70.5852460
  38.7413930   7.9467930  71.1835420  39.4371330   9.2910380  71.1547190
  45.2756280   5.4350800  66.0661080  45.6426410   4.9609370  66.8122420
  45.0861340   6.3092370  66.4069420  43.0655650   4.4759440  68.3845290
  42.7612720   5.3551420  68.6095650  44.0202110   4.5359230  68.4202730
  41.5937440   8.6820430  58.9812140  40.8199700   8.1418050  58.8210860
  42.3232070   8.1627040  58.6429900  52.3525420   7.6785790  64.7738530
  53.0724540   8.1741080  64.3834640  52.1507240   7.0003680  64.1292400
  47.7344220   7.7494850  70.6607530  47.6681530   6.8290520  70.4065120
  47.1049360   7.8470290  71.3752170  50.5283750   3.4443400  57.2130080
  51.4163370   3.7560630  57.0381420  50.4988840   2.5715650  56.8210660
  41.6374840   8.3500810  62.6190950  42.1553510   7.5469070  62.5647840
  41.1858860   8.2879950  63.4607780  46.5244340   9.6167090  57.8918250
  46.8660040  10.3609320  57.3961570  45.6957050   9.9298210  58.2543080
  39.1219380   5.3162180  69.5316650  38.7634320   5.9816030  70.1189990
  38.8273940   4.4845730  69.9029270  42.3232500   5.7746420  72.4156200
  42.0232640   5.9203600  71.5184020  43.0943740   5.2151710  72.3229590
  47.6660950  10.5715420  70.4111330  47.6805490   9.6396380  70.1930240
  46.9586050  10.6575180  71.0501100  52.7998020   4.7555240  56.6809940
  52.7161740   5.1869460  55.8306380  53.5192210   5.2153590  57.1136760
  53.8772160   7.2122760  69.7579910  53.1520350   7.8051540  69.5609300
  54.4047620   7.2046300  68.9593280  53.8285270  11.6097500  59.4092070
  53.1861430  10.9553120  59.6835790  53.4415930  12.0152590  58.6332740
  49.4071750   8.9382930  63.2563760  49.7595570   8.3411060  62.5965130
  48.5234080   8.6127160  63.4272010  45.4935030   9.6980620  60.6634170
  46.1806160  10.2449830  61.0441760  44.7067450  10.2421350  60.6983780
  37.6327430   5.3153440  56.1551250  38.5022280   5.5978240  56.4387170
  37.1417750   6.1289310  56.0400060  44.7962240   6.7026650  60.2759530
  45.2525020   7.5131900  60.5019720  44.4450450   6.3849790  61.1078020
  47.0994850  12.2132990  67.5051830  47.7437070  12.4192370  68.1825250
  47.4624290  11.4521390  67.0522680  48.3726930  10.2165340  66.2229280
  49.0149160   9.5158500  66.3361450  48.8976280  10.9963780  66.0426170
  52.2182650  10.5013960  55.9468420  51.9920230   9.7844400  56.5393060
  51.8278850  10.2526400  55.1090170  50.1464550  11.0160240  69.4265340
  50.4820790  11.6026930  70.1043260  49.2264890  10.8852950  69.6563130
  37.9998680  14.5280820  56.7212880  38.3596320  15.1270160  56.0670150
  37.8591020  15.0740710  57.4947910  51.7998900   8.4185900  57.6082580
  51.5120600   8.8798590  58.3960460  52.5951070   7.9583670  57.8766800
  37.9840540  12.7935680  71.1955280  38.0931660  11.8530420  71.0550670
  37.3321100  13.0590430  70.5469010  45.9753130  11.0651570  72.5953400
  45.6550000  10.3460810  73.1399090  45.3011490  11.7406640  72.6689460
  44.0167300  11.9112020  57.5386550  44.0077400  12.6441710  56.9231060
  43.0965660  11.6643600  57.6313510  39.6173940   7.1326910  58.2833310
  39.0101890   7.8725810  58.2928610  40.0923290   7.2226270  57.4571510
  47.0026900  11.9740260  56.2011740  47.1038880  11.7704250  55.2713720
  46.1028640  11.7198540  56.4059520  44.5252790   2.5320620  60.1835640
  43.8168940   3.0006960  60.6249250  44.8097270   1.8742630  60.8180830
  46.1508720   3.9517320  68.1828170  46.6493970   4.4263140  68.8480020
  46.2931670   3.0280840  68.3898200  45.6445010  14.4926580  60.8959410
  45.8986510  14.4547970  59.9738780  44.6957490  14.3659910  60.8887660
  51.6497590   5.4118460  62.4717920  50.7087730   5.4268690  62.6465610
  51.9641660   4.6254420  62.9178220  41.6279230   7.0938060  56.0321880
  42.3942500   6.9819420  56.5947310  41.7053920   6.3976030  55.3798650
  40.3225990   4.5263130  56.7154770  40.4029580   3.5790640  56.8272170
  41.2145740   4.8570010  56.8215430  53.6523170  12.5827310  64.1472180
  53.7770590  13.4058480  64.6195990  54.5188730  12.3718040  63.7996330
  41.1240700  14.6758520  63.8189310  41.8603180  14.1273980  64.0897880
  41.5081620  15.5414530  63.6795300  38.0086180  10.7432090  59.6930820
  37.0825960  10.9853230  59.6836230  38.4742610  11.5706350  59.5715570
  40.1298980  13.8604590  73.0074890  40.9311710  14.1816640  73.4210290
  39.6150800  13.5000170  73.7294800  44.2343010  13.8488830  55.6414880
  45.0271620  14.1377660  55.1896670  43.7147360  13.4181000  54.9627360
  48.9663610   9.9684460  72.9550300  48.3601770   9.9916060  72.2146050
  48.6617720   9.2367500  73.4917550  50.3963980  13.6964750  71.5659710
  51.3485730  13.6122770  71.5159950  50.2492200  14.3606460  72.2393500
  53.2873180  13.0758960  57.0651620  53.0014690  12.6624100  56.2505800
  53.0892730  14.0046670  56.9452140  37.8496790   6.3478050  71.9510940
  38.3535810   5.7685330  72.5227170  37.1104210   6.6318280  72.4887310
  44.7520410   9.0692240  55.5057230  44.6471050   8.4544590  56.2318610
  44.5844630   8.5458130  54.7220240  44.9034730   7.7549040  71.4846460
  44.1380400   8.3234040  71.4001130  45.0850690   7.4625250  70.5914690
  47.9923140   8.1312270  56.1099220  47.4433240   8.5781570  56.7541960
  48.6142400   7.6261520  56.6336890  52.0458080   9.4854370  72.0421480
  52.7867550   9.8230130  71.5388940  51.2830760   9.6546430  71.4891250
  39.8819870   4.4907640  72.8461010  39.9225210   4.1921510  73.7546240
  40.7365370   4.8915250  72.6868530  43.6598260   7.0903190  58.0064520
  44.0814680   6.9243060  58.8495910  43.7849100   6.2803420  57.5119660
  41.8225680   3.0699740  70.8135500  41.2922140   2.5790690  70.1858840
  42.4913750   3.4983940  70.2793430  46.1725900   6.1140800  55.2541620
  46.6931560   5.3989820  54.8882770  46.8194300   6.7526670  55.5542130
  50.7203740   7.5369200  70.5776690  51.1344760   7.6914280  71.4267110
  49.7854740   7.6624420  70.7402470  51.1925910   4.8765360  72.5815840
  51.7746680   4.1217680  72.4936320  51.3687680   5.4072800  71.8047320
  45.4818970   7.4889680  68.5472620  45.9007080   8.3322410  68.3748860
  44.5627600   7.6261720  68.3179400  47.8182870   5.2205860  69.9310460
  47.9379080   4.6247000  70.6705300  48.6776870   5.2575550  69.5111760
  50.1570770   5.7743050  68.5072970  49.6305990   6.2985670  67.9038110
  50.5002110   6.4070440  69.1382700  42.5557160   3.1636420  54.9522680
  42.3546220   2.3003780  55.3136020  42.3849210   3.0769780  54.0144280
  43.3326390  13.7942690  69.6630350  42.7947480  14.5188750  69.3439050
  43.5860350  13.3173030  68.8727690  46.1888600  15.0293900  69.9217000
  46.1147300  15.9329040  70.2289370  45.2867440  14.7105800  69.8939070
  46.7373930  14.1952410  57.5443360  47.6324720  14.5337380  57.5662120
  46.7691560  13.4731820  56.9167640  40.3770090   9.5679460  55.7730360
  40.8144960  10.1109130  56.4287940  40.8617820   8.7426410  55.7826700
  37.5915890  12.3568490  63.2250620  37.9218900  11.4889550  62.9929260
  38.0206890  12.5627010  64.0555580  42.1877810  10.6877500  60.8852590
  41.8873350  10.5642470  61.7856500  42.0815300   9.8286090  60.4768320
  38.0806100  13.2239080  65.9632250  37.6437090  13.4039880  66.7956400
  38.6483780  13.9813700  65.8213970  53.7168280  12.7256080  70.2509560
  53.1170270  12.7848640  69.5073480  53.8462180  11.7861060  70.3806410
  54.9569730  10.4673900  55.5879270  54.1262690  10.5350550  56.0586500
  55.1341560  11.3578020  55.2846130  54.4126190   7.2121380  58.0913470
  55.1745100   7.7818030  58.1973160  54.4280560   6.6448580  58.8621780
  37.9130530   5.7359310  62.3221130  37.2579370   5.4670950  61.6780830
  38.7508480   5.6263790  61.8723110  55.4186160   8.0671480  62.9355400
  55.7894990   7.2838800  62.5291370  56.0588090   8.7560580  62.7572700
  52.4019920   9.4508060  68.3485720  51.5879760   9.8805220  68.6111510
  52.8094120  10.0626470  67.7354770  54.4645360   7.5055750  55.2485990
  54.7394200   8.4134630  55.1205210  54.2756100   7.4418280  56.1847980
  54.3610700   5.4424740  60.2415420  53.9854300   4.6752670  59.8096710
  53.6313820   5.8247440  60.7290350  38.9506460   6.1211880  66.8624470
  39.3179500   6.0339280  67.7420490  38.3817280   5.3578430  66.7631330
  53.7510320   4.5896260  69.8754940  53.5196410   4.3609010  68.9752890
  54.0114870   5.5095810  69.8299830  38.5022460   3.0320970  70.7682890
  37.6078510   2.9987730  71.1076600  39.0420010   3.2307760  71.5334140
  37.1268610   2.9458240  58.2646460  36.2232690   3.2088440  58.0898120
  37.6109230   3.2169410  57.4846420  53.6361660   3.6682230  63.5422660
  54.1599140   3.1744880  62.9112830  54.2221080   3.8032590  64.2870230
  53.8151380   3.7522100  67.0642210  52.8654090   3.7185640  67.1787200
  53.9964390   4.6622210  66.8291980  53.1261630   2.9255580  59.4815070
  53.6220750   2.6926450  60.2663950  52.9277700   2.0867420  59.0652710
  52.4595970  14.2026660  61.8753990  53.0555040  13.8811230  61.1988410
  52.7174120  13.7298480  62.6667260  40.3658540  10.6344570  72.0244620
  40.3228170  10.2637480  72.9059080  40.4969550  11.5722140  72.1646440
  44.0664570  12.1904160  67.6254340  43.8255930  12.4578720  66.7384860
  45.0067210  12.3609890  67.6805200  55.3268730  14.2098540  68.4264980
  54.8327010  14.6067410  67.7092110  54.7182020  13.5847750  68.8202260
  40.2046570  13.5806820  69.1442400  39.6106890  13.4491520  69.8832440
  40.1970410  12.7444960  68.6784500  53.0108180  14.8521960  65.7051720
  52.5511150  15.6037770  65.3309740  52.3820640  14.1328430  65.6466520
  39.8358800  10.9465200  68.0950440  39.1092860  10.3270490  68.0276390
  39.8967950  11.3405810  67.2248520  43.4403900  13.1610200  64.8799850
  43.9568920  12.5497560  64.3548110  44.0901280  13.6638980  65.3710860
  46.1799400  14.0518690  65.7068830  46.4677210  13.7972990  64.8301840
  46.6922620  13.4996050  66.2974400  38.1188800  14.2639590  61.3047200
  37.9510840  13.6310270  62.0029090  37.2523310  14.4698990  60.9541390
  39.7251500  12.9572820  58.7497340  39.1999120  13.3380850  58.0459300
  39.6496080  13.5823590  59.4707050  46.2471760  14.9734790  73.0737030
  47.1739070  14.7379060  73.1172990  46.2322190  15.8006790  72.5923060
  54.4816820  14.5160360  60.0711280  54.6569010  13.8298100  59.4272200
  53.7838390  15.0407410  59.6787950  42.3244470  14.9055200  57.6246590
  43.0563290  14.6214480  57.0770480  42.5838140  14.6668480  58.5145970
  41.4859260  11.0219930  57.6292920  40.8568140  11.4905030  58.1778750
  41.6007090  10.1769150  58.0639110  52.8149320  14.2004650  72.8978070
  53.6074640  13.7053880  72.6904030  53.1082470  14.8794790  73.5053680
  48.9408980   5.0725590  43.7794120  48.8603030   4.1580200  43.5085830
  48.5273400   5.5692660  43.0733830  47.0727020   6.8504610  45.6603390
  46.2969120   6.3705050  45.9501960  47.7239950   6.1710260  45.4859550
  41.0892850   7.1624420  46.5379150  40.2577730   6.9073130  46.9375660
  41.6973830   7.2335190  47.2737070  51.0934450  11.2564800  44.4402520
  50.6315980  10.4852040  44.7689690  51.9060000  11.2830870  44.9454970
  41.0694110  11.1964510  46.7337170  41.3722150  10.3062250  46.5547390
  41.8137700  11.7534730  46.5059420  39.4984800   2.1226310  40.3221540
  38.6101500   2.4642280  40.2201420  39.7825990   1.9226630  39.4302370
  37.4617810   4.7231960  46.2061240  38.0333920   3.9554160  46.2064880
  37.4619350   5.0220720  45.2967850  47.3197760  13.5422810  44.0606510
  46.7009200  13.9980310  43.4900950  48.1749540  13.6974270  43.6596210
  46.5136010   9.5261800  45.6673550  46.4444290   8.5851740  45.5062680
  47.2755870   9.6163210  46.2396120  39.3229350   2.6276820  46.6012510
  40.0039460   2.8915190  47.2199910  39.0077400   1.7877690  46.9350520
  43.5153920   3.6744180  45.6885100  44.0232140   4.1725150  46.3290120
  44.0467160   2.8979380  45.5124460  55.6164850   1.8449370  49.3914450
  54.9117020   2.2331080  48.8729560  55.8822770   2.5399660  49.9935380
  48.1861110   8.4262050  41.4538420  47.5678380   8.8911500  40.8901140
  48.6984360   9.1189530  41.8707930  43.0492870   7.9537920  48.1322020
  42.7162250   8.5806840  48.7743090  43.2259550   8.4799800  47.3523690
  51.5626780   1.7683000  45.5998360  50.8582350   2.0567890  46.1801470
  51.9238940   2.5783110  45.2397920  42.2611970   9.9218720  49.9471200
  42.8785970  10.5969800  49.6655650  41.4005090  10.3306700  49.8558700
  37.5544310   9.1118580  38.8278050  37.1772290   9.6005680  38.0962950
  37.8117380   9.7843860  39.4584580  53.1789560  11.3858130  47.8625840
  52.4953080  12.0557240  47.8542510  53.7183850  11.5838780  47.0970700
  50.7148300  13.2302260  46.5771020  50.7275460  12.8264550  45.7093280
  50.1623520  14.0049550  46.4732450  52.0093720   9.9518480  41.6661190
  51.8990050   9.0092810  41.7910610  52.0061970  10.3134120  42.5523950
  50.1133740   8.1332100  47.9053630  50.5302530   7.9192210  47.0707090
  50.8373560   8.3904890  48.4762250  47.5514000   5.5783800  41.0223680
  46.6243280   5.5121180  41.2512150  47.7038820   6.5163930  40.9078920
  47.5383080   1.8500800  38.0190840  46.5986750   2.0114760  38.1043300
  47.8566340   2.5686480  37.4726830  54.0595840   6.5319320  47.9969870
  53.2314470   6.6012410  47.5220000  54.6546320   7.1173630  47.5285700
  51.5811290   7.1404100  41.5258930  50.9623710   6.8023650  40.8785230
  51.5635740   6.4963860  42.2338120  51.0237850   3.3188640  48.9424740
  50.6109030   4.1442350  49.1964730  50.2913800   2.7333680  48.7501100
  43.1570640   6.1048540  43.8043410  42.7527640   5.3925790  43.3089310
  43.2433760   5.7601780  44.6931450  43.6252340   9.7916100  45.9682620
  43.3280630   9.1861570  45.2890400  44.5752160   9.8293410  45.8571980
  41.8699260   2.8791750  47.5842450  42.4213850   2.9887090  46.8095700
  42.3842770   3.2529350  48.2997680  51.7137950  13.3647970  49.6305720
  51.2368510  14.1720160  49.4378330  51.0299740  12.7126300  49.7831930
  42.7170770   9.5297790  52.6190420  41.8199300   9.7537760  52.8663820
  42.7423640   9.6532730  51.6701820  49.7575990   6.3790910  38.5331680
  50.1969270   5.5413340  38.3869500  50.4704410   7.0120310  38.6195820
  41.5441990   6.4011110  51.1947790  41.4049760   7.2733910  51.5635190
  40.6623350   6.0583920  51.0495730  47.8671370  11.3186980  42.5012920
  48.3067280  12.0611310  42.0868310  47.8058260  11.5613550  43.4251880
  43.3422340  12.3432810  53.4032940  43.3137770  12.7475760  52.5361370
  43.1787310  11.4143170  53.2404540  39.8575270   4.9993520  41.3050060
  39.7372870   5.7255610  40.6931330  39.5476160   4.2296430  40.8277970
  55.2937160  13.1259910  54.6997110  55.7696880  13.6042800  55.3786190
  55.9144320  13.0577400  53.9742610  37.4960640   8.1708660  47.1118700
  37.5741060   8.3057430  46.1674420  38.1102320   7.4624550  47.3046820
  38.7408270   9.8708850  43.5224880  38.3336350  10.0123440  42.6678480
  39.6321280   9.5869010  43.3196090  54.6970410  10.3172760  51.8597120
  54.8233470  10.0784640  50.9414300  54.7391790   9.4857300  52.3319200
  48.5587150  14.0200760  50.4291930  49.0731820  13.9308770  51.2314360
  47.7156230  14.3660460  50.7219840  50.5341550  14.3056100  39.8575930
  50.3742690  14.0159040  40.7557760  50.3688260  13.5296230  39.3221160
  50.2367680  11.8143660  38.4173930  49.5432840  11.8120950  37.7576210
  50.9790540  11.3902980  37.9868100  49.8017610  13.4406370  42.4922420
  50.2574560  12.6595750  42.8061040  50.1410130  14.1513190  43.0363600
  37.5520160   9.2122830  49.6513160  37.7151200   8.7428190  48.8332530
  38.0172610   8.7046390  50.3162000  51.6113250   2.4306060  51.4205710
  50.7606840   2.1311810  51.7414780  51.4515040   2.6748070  50.5089530
  48.7062960   3.9307810  53.5204500  49.0316370   3.0971560  53.1806730
  49.4943290   4.4536330  53.6682830  42.1153150   3.4662160  42.4154980
  41.8894070   3.2499330  43.3201600  41.3345680   3.8990620  42.0700950
  49.3450910   3.4725530  41.0145630  48.7459800   4.1961330  40.8309250
  49.8930520   3.4102310  40.2322080  44.5552360   4.3647740  53.0815250
  44.4595960   3.4242470  52.9315650  45.3984340   4.5862810  52.6863320
  37.1750180   2.6409990  36.4781830  37.0924850   3.5840750  36.6196820
  36.8233240   2.4984900  35.5994180  48.5370920   4.6994820  47.1399690
  47.8052040   5.2081630  47.4889790  48.1395260   3.8824800  46.8388470
  45.0368460   2.3761100  38.5358940  45.1581280   2.3347580  39.4844760
  44.6516970   3.2385250  38.3805670  44.0489960   4.6862240  37.9342240
  43.4806860   4.2380490  37.3078150  44.7578960   5.0455020  37.4007390
  39.1259140   8.5874260  51.8108970  38.7413930   7.9467930  52.4091930
  39.4371330   9.2910380  52.3803700  45.2756280   5.4350800  47.2917590
  45.6426410   4.9609370  48.0378930  45.0861340   6.3092370  47.6325930
  43.0655650   4.4759440  49.6101800  42.7612720   5.3551420  49.8352160
  44.0202110   4.5359230  49.6459240  41.5937440   8.6820430  40.2068650
  40.8199700   8.1418050  40.0467370  42.3232070   8.1627040  39.8686410
  52.3525420   7.6785790  45.9995040  53.0724540   8.1741080  45.6091150
  52.1507240   7.0003680  45.3548910  47.7344220   7.7494850  51.8864040
  47.6681530   6.8290520  51.6321630  47.1049360   7.8470290  52.6008680
  50.5283750   3.4443400  38.4386590  51.4163370   3.7560630  38.2637930
  50.4988840   2.5715650  38.0467170  41.6374840   8.3500810  43.8447460
  42.1553510   7.5469070  43.7904350  41.1858860   8.2879950  44.6864290
  46.5244340   9.6167090  39.1174760  46.8660040  10.3609320  38.6218080
  45.6957050   9.9298210  39.4799590  39.1219380   5.3162180  50.7573160
  38.7634320   5.9816030  51.3446500  38.8273940   4.4845730  51.1285780
  42.3232500   5.7746420  53.6412710  42.0232640   5.9203600  52.7440530
  43.0943740   5.2151710  53.5486100  47.6660950  10.5715420  51.6367840
  47.6805490   9.6396380  51.4186750  46.9586050  10.6575180  52.2757610
  52.7998020   4.7555240  37.9066450  52.7161740   5.1869460  37.0562890
  53.5192210   5.2153590  38.3393270  53.8772160   7.2122760  50.9836420
  53.1520350   7.8051540  50.7865810  54.4047620   7.2046300  50.1849790
  53.8285270  11.6097500  40.6348580  53.1861430  10.9553120  40.9092300
  53.4415930  12.0152590  39.8589250  49.4071750   8.9382930  44.4820270
  49.7595570   8.3411060  43.8221640  48.5234080   8.6127160  44.6528520
  45.4935030   9.6980620  41.8890680  46.1806160  10.2449830  42.2698270
  44.7067450  10.2421350  41.9240290  37.6327430   5.3153440  37.3807760
  38.5022280   5.5978240  37.6643680  37.1417750   6.1289310  37.2656570
  44.7962240   6.7026650  41.5016040  45.2525020   7.5131900  41.7276230
  44.4450450   6.3849790  42.3334530  47.0994850  12.2132990  48.7308340
  47.7437070  12.4192370  49.4081760  47.4624290  11.4521390  48.2779190
  48.3726930  10.2165340  47.4485790  49.0149160   9.5158500  47.5617960
  48.8976280  10.9963780  47.2682680  52.2182650  10.5013960  37.1724930
  51.9920230   9.7844400  37.7649570  51.8278850  10.2526400  36.3346680
  50.1464550  11.0160240  50.6521850  50.4820790  11.6026930  51.3299770
  49.2264890  10.8852950  50.8819640  51.7998900   8.4185900  38.8339090
  51.5120600   8.8798590  39.6216970  52.5951070   7.9583670  39.1023310
  37.9840540  12.7935680  52.4211790  38.0931660  11.8530420  52.2807180
  37.3321100  13.0590430  51.7725520  45.9753130  11.0651570  53.8209910
  45.6550000  10.3460810  54.3655600  45.3011490  11.7406640  53.8945970
  44.0167300  11.9112020  38.7643060  44.0077400  12.6441710  38.1487570
  43.0965660  11.6643600  38.8570020  39.6173940   7.1326910  39.5089820
  39.0101890   7.8725810  39.5185120  40.0923290   7.2226270  38.6828020
  47.0026900  11.9740260  37.4268250  47.1038880  11.7704250  36.4970230
  46.1028640  11.7198540  37.6316030  44.5252790   2.5320620  41.4092150
  43.8168940   3.0006960  41.8505760  44.8097270   1.8742630  42.0437340
  46.1508720   3.9517320  49.4084680  46.6493970   4.4263140  50.0736530
  46.2931670   3.0280840  49.6154710  45.6445010  14.4926580  42.1215920
  45.8986510  14.4547970  41.1995290  44.6957490  14.3659910  42.1144170
  51.6497590   5.4118460  43.6974430  50.7087730   5.4268690  43.8722120
  51.9641660   4.6254420  44.1434730  41.6279230   7.0938060  37.2578390
  42.3942500   6.9819420  37.8203820  41.7053920   6.3976030  36.6055160
  40.3225990   4.5263130  37.9411280  40.4029580   3.5790640  38.0528680
  41.2145740   4.8570010  38.0471940  53.6523170  12.5827310  45.3728690
  53.7770590  13.4058480  45.8452500  54.5188730  12.3718040  45.0252840
  41.1240700  14.6758520  45.0445820  41.8603180  14.1273980  45.3154390
  41.5081620  15.5414530  44.9051810  40.1298980  13.8604590  54.2331400
  40.9311710  14.1816640  54.6466800  39.6150800  13.5000170  54.9551310
  44.2343010  13.8488830  36.8671390  45.0271620  14.1377660  36.4153180
  43.7147360  13.4181000  36.1883870  48.9663610   9.9684460  54.1806810
  48.3601770   9.9916060  53.4402560  48.6617720   9.2367500  54.7174060
  50.3963980  13.6964750  52.7916220  51.3485730  13.6122770  52.7416460
  50.2492200  14.3606460  53.4650010  53.2873180  13.0758960  38.2908130
  53.0014690  12.6624100  37.4762310  53.0892730  14.0046670  38.1708650
  37.8496790   6.3478050  53.1767450  38.3535810   5.7685330  53.7483680
  37.1104210   6.6318280  53.7143820  44.7520410   9.0692240  36.7313740
  44.6471050   8.4544590  37.4575120  44.5844630   8.5458130  35.9476750
  44.9034730   7.7549040  52.7102970  44.1380400   8.3234040  52.6257640
  45.0850690   7.4625250  51.8171200  47.9923140   8.1312270  37.3355730
  47.4433240   8.5781570  37.9798470  48.6142400   7.6261520  37.8593400
  52.0458080   9.4854370  53.2677990  52.7867550   9.8230130  52.7645450
  51.2830760   9.6546430  52.7147760  39.8819870   4.4907640  54.0717520
  39.9225210   4.1921510  54.9802750  40.7365370   4.8915250  53.9125040
  43.6598260   7.0903190  39.2321030  44.0814680   6.9243060  40.0752420
  43.7849100   6.2803420  38.7376170  41.8225680   3.0699740  52.0392010
  41.2922140   2.5790690  51.4115350  42.4913750   3.4983940  51.5049940
  46.1725900   6.1140800  36.4798130  46.6931560   5.3989820  36.1139280
  46.8194300   6.7526670  36.7798640  50.7203740   7.5369200  51.8033200
  51.1344760   7.6914280  52.6523620  49.7854740   7.6624420  51.9658980
  51.1925910   4.8765360  53.8072350  51.7746680   4.1217680  53.7192830
  51.3687680   5.4072800  53.0303830  45.4818970   7.4889680  49.7729130
  45.9007080   8.3322410  49.6005370  44.5627600   7.6261720  49.5435910
  47.8182870   5.2205860  51.1566970  47.9379080   4.6247000  51.8961810
  48.6776870   5.2575550  50.7368270  50.1570770   5.7743050  49.7329480
  49.6305990   6.2985670  49.1294620  50.5002110   6.4070440  50.3639210
  42.5557160   3.1636420  36.1779190  42.3546220   2.3003780  36.5392530
  42.3849210   3.0769780  35.2400790  43.3326390  13.7942690  50.8886860
  42.7947480  14.5188750  50.5695560  43.5860350  13.3173030  50.0984200
  46.1888600  15.0293900  51.1473510  46.1147300  15.9329040  51.4545880
  45.2867440  14.7105800  51.1195580  46.7373930  14.1952410  38.7699870
  47.6324720  14.5337380  38.7918630  46.7691560  13.4731820  38.1424150
  40.3770090   9.5679460  36.9986870  40.8144960  10.1109130  37.6544450
  40.8617820   8.7426410  37.0083210  37.5915890  12.3568490  44.4507130
  37.9218900  11.4889550  44.2185770  38.0206890  12.5627010  45.2812090
  42.1877810  10.6877500  42.1109100  41.8873350  10.5642470  43.0113010
  42.0815300   9.8286090  41.7024830  38.0806100  13.2239080  47.1888760
  37.6437090  13.4039880  48.0212910  38.6483780  13.9813700  47.0470480
  53.7168280  12.7256080  51.4766070  53.1170270  12.7848640  50.7329990
  53.8462180  11.7861060  51.6062920  54.9569730  10.4673900  36.8135780
  54.1262690  10.5350550  37.2843010  55.1341560  11.3578020  36.5102640
  54.4126190   7.2121380  39.3169980  55.1745100   7.7818030  39.4229670
  54.4280560   6.6448580  40.0878290  37.9130530   5.7359310  43.5477640
  37.2579370   5.4670950  42.9037340  38.7508480   5.6263790  43.0979620
  55.4186160   8.0671480  44.1611910  55.7894990   7.2838800  43.7547880
  56.0588090   8.7560580  43.9829210  52.4019920   9.4508060  49.5742230
  51.5879760   9.8805220  49.8368020  52.8094120  10.0626470  48.9611280
  54.4645360   7.5055750  36.4742500  54.7394200   8.4134630  36.3461720
  54.2756100   7.4418280  37.4104490  54.3610700   5.4424740  41.4671930
  53.9854300   4.6752670  41.0353220  53.6313820   5.8247440  41.9546860
  38.9506460   6.1211880  48.0880980  39.3179500   6.0339280  48.9677000
  38.3817280   5.3578430  47.9887840  53.7510320   4.5896260  51.1011450
  53.5196410   4.3609010  50.2009400  54.0114870   5.5095810  51.0556340
  38.5022460   3.0320970  51.9939400  37.6078510   2.9987730  52.3333110
  39.0420010   3.2307760  52.7590650  37.1268610   2.9458240  39.4902970
  36.2232690   3.2088440  39.3154630  37.6109230   3.2169410  38.7102930
  53.6361660   3.6682230  44.7679170  54.1599140   3.1744880  44.1369340
  54.2221080   3.8032590  45.5126740  53.8151380   3.7522100  48.2898720
  52.8654090   3.7185640  48.4043710  53.9964390   4.6622210  48.0548490
  53.1261630   2.9255580  40.7071580  53.6220750   2.6926450  41.4920460
  52.9277700   2.0867420  40.2909220  52.4595970  14.2026660  43.1010500
  53.0555040  13.8811230  42.4244920  52.7174120  13.7298480  43.8923770
  40.3658540  10.6344570  53.2501130  40.3228170  10.2637480  54.1315590
  40.4969550  11.5722140  53.3902950  44.0664570  12.1904160  48.8510850
  43.8255930  12.4578720  47.9641370  45.0067210  12.3609890  48.9061710
  55.3268730  14.2098540  49.6521490  54.8327010  14.6067410  48.9348620
  54.7182020  13.5847750  50.0458770  40.2046570  13.5806820  50.3698910
  39.6106890  13.4491520  51.1088950  40.1970410  12.7444960  49.9041010
  53.0108180  14.8521960  46.9308230  52.5511150  15.6037770  46.5566250
  52.3820640  14.1328430  46.8723030  39.8358800  10.9465200  49.3206950
  39.1092860  10.3270490  49.2532900  39.8967950  11.3405810  48.4505030
  43.4403900  13.1610200  46.1056360  43.9568920  12.5497560  45.5804620
  44.0901280  13.6638980  46.5967370  46.1799400  14.0518690  46.9325340
  46.4677210  13.7972990  46.0558350  46.6922620  13.4996050  47.5230910
  46.2471760  14.9734790  54.2993540  47.1739070  14.7379060  54.3429500
  46.2322190  15.8006790  53.8179570  54.4816820  14.5160360  41.2967790
  54.6569010  13.8298100  40.6528710  53.7838390  15.0407410  40.9044460
  52.8149320  14.2004650  54.1234580  53.6074640  13.7053880  53.9160540
  53.1082470  14.8794790  54.7310190  48.9408980   5.0725590  25.0050630
  48.8603030   4.1580200  24.7342340  48.5273400   5.5692660  24.2990340
  47.0727020   6.8504610  26.8859900  46.2969120   6.3705050  27.1758470
  47.7239950   6.1710260  26.7116060  41.0892850   7.1624420  27.7635660
  40.2577730   6.9073130  28.1632170  41.6973830   7.2335190  28.4993580
  51.0934450  11.2564800  25.6659030  50.6315980  10.4852040  25.9946200
  51.9060000  11.2830870  26.1711480  41.0694110  11.1964510  27.9593680
  41.3722150  10.3062250  27.7803900  41.8137700  11.7534730  27.7315930
  39.4984800   2.1226310  21.5478050  38.6101500   2.4642280  21.4457930
  39.7825990   1.9226630  20.6558880  37.4617810   4.7231960  27.4317750
  38.0333920   3.9554160  27.4321390  37.4619350   5.0220720  26.5224360
  47.3197760  13.5422810  25.2863020  46.7009200  13.9980310  24.7157460
  48.1749540  13.6974270  24.8852720  46.5136010   9.5261800  26.8930060
  46.4444290   8.5851740  26.7319190  47.2755870   9.6163210  27.4652630
  39.3229350   2.6276820  27.8269020  40.0039460   2.8915190  28.4456420
  39.0077400   1.7877690  28.1607030  43.5153920   3.6744180  26.9141610
  44.0232140   4.1725150  27.5546630  44.0467160   2.8979380  26.7380970
  55.6164850   1.8449370  30.6170960  54.9117020   2.2331080  30.0986070
  55.8822770   2.5399660  31.2191890  48.1861110   8.4262050  22.6794930
  47.5678380   8.8911500  22.1157650  48.6984360   9.1189530  23.0964440
  43.0492870   7.9537920  29.3578530  42.7162250   8.5806840  29.9999600
  43.2259550   8.4799800  28.5780200  51.5626780   1.7683000  26.8254870
  50.8582350   2.0567890  27.4057980  51.9238940   2.5783110  26.4654430
  42.2611970   9.9218720  31.1727710  42.8785970  10.5969800  30.8912160
  41.4005090  10.3306700  31.0815210  37.5544310   9.1118580  20.0534560
  37.1772290   9.6005680  19.3219460  37.8117380   9.7843860  20.6841090
  53.1789560  11.3858130  29.0882350  52.4953080  12.0557240  29.0799020
  53.7183850  11.5838780  28.3227210  50.7148300  13.2302260  27.8027530
  50.7275460  12.8264550  26.9349790  50.1623520  14.0049550  27.6988960
  52.0093720   9.9518480  22.8917700  51.8990050   9.0092810  23.0167120
  52.0061970  10.3134120  23.7780460  50.1133740   8.1332100  29.1310140
  50.5302530   7.9192210  28.2963600  50.8373560   8.3904890  29.7018760
  47.5514000   5.5783800  22.2480190  46.6243280   5.5121180  22.4768660
  47.7038820   6.5163930  22.1335430  47.5383080   1.8500800  19.2447350
  46.5986750   2.0114760  19.3299810  47.8566340   2.5686480  18.6983340
  54.0595840   6.5319320  29.2226380  53.2314470   6.6012410  28.7476510
  54.6546320   7.1173630  28.7542210  51.5811290   7.1404100  22.7515440
  50.9623710   6.8023650  22.1041740  51.5635740   6.4963860  23.4594630
  51.0237850   3.3188640  30.1681250  50.6109030   4.1442350  30.4221240
  50.2913800   2.7333680  29.9757610  43.1570640   6.1048540  25.0299920
  42.7527640   5.3925790  24.5345820  43.2433760   5.7601780  25.9187960
  43.6252340   9.7916100  27.1939130  43.3280630   9.1861570  26.5146910
  44.5752160   9.8293410  27.0828490  41.8699260   2.8791750  28.8098960
  42.4213850   2.9887090  28.0352210  42.3842770   3.2529350  29.5254190
  51.7137950  13.3647970  30.8562230  51.2368510  14.1720160  30.6634840
  51.0299740  12.7126300  31.0088440  42.7170770   9.5297790  33.8446930
  41.8199300   9.7537760  34.0920330  42.7423640   9.6532730  32.8958330
  49.7575990   6.3790910  19.7588190  50.1969270   5.5413340  19.6126010
  50.4704410   7.0120310  19.8452330  41.5441990   6.4011110  32.4204300
  41.4049760   7.2733910  32.7891700  40.6623350   6.0583920  32.2752240
  47.8671370  11.3186980  23.7269430  48.3067280  12.0611310  23.3124820
  47.8058260  11.5613550  24.6508390  43.3422340  12.3432810  34.6289450
  43.3137770  12.7475760  33.7617880  43.1787310  11.4143170  34.4661050
  39.8575270   4.9993520  22.5306570  39.7372870   5.7255610  21.9187840
  39.5476160   4.2296430  22.0534480  55.2937160  13.1259910  35.9253620
  55.7696880  13.6042800  36.6042700  55.9144320  13.0577400  35.1999120
  37.4960640   8.1708660  28.3375210  37.5741060   8.3057430  27.3930930
  38.1102320   7.4624550  28.5303330  38.7408270   9.8708850  24.7481390
  38.3336350  10.0123440  23.8934990  39.6321280   9.5869010  24.5452600
  54.6970410  10.3172760  33.0853630  54.8233470  10.0784640  32.1670810
  54.7391790   9.4857300  33.5575710  48.5587150  14.0200760  31.6548440
  49.0731820  13.9308770  32.4570870  47.7156230  14.3660460  31.9476350
  50.5341550  14.3056100  21.0832440  50.3742690  14.0159040  21.9814270
  50.3688260  13.5296230  20.5477670  43.0129930  14.0854630  22.8604060
  42.8372410  13.1690170  22.6471860  42.1585670  14.4441920  23.1001860
  50.2367680  11.8143660  19.6430440  49.5432840  11.8120950  18.9832720
  50.9790540  11.3902980  19.2124610  49.8017610  13.4406370  23.7178930
  50.2574560  12.6595750  24.0317550  50.1410130  14.1513190  24.2620110
  37.5520160   9.2122830  30.8769670  37.7151200   8.7428190  30.0589040
  38.0172610   8.7046390  31.5418510  51.6113250   2.4306060  32.6462220
  50.7606840   2.1311810  32.9671290  51.4515040   2.6748070  31.7346040
  48.7062960   3.9307810  34.7461010  49.0316370   3.0971560  34.4063240
  49.4943290   4.4536330  34.8939340  42.1153150   3.4662160  23.6411490
  41.8894070   3.2499330  24.5458110  41.3345680   3.8990620  23.2957460
  49.3450910   3.4725530  22.2402140  48.7459800   4.1961330  22.0565760
  49.8930520   3.4102310  21.4578590  44.5552360   4.3647740  34.3071760
  44.4595960   3.4242470  34.1572160  45.3984340   4.5862810  33.9119830
  37.1750180   2.6409990  17.7038340  37.0924850   3.5840750  17.8453330
  36.8233240   2.4984900  16.8250690  48.5370920   4.6994820  28.3656200
  47.8052040   5.2081630  28.7146300  48.1395260   3.8824800  28.0644980
  45.0368460   2.3761100  19.7615450  45.1581280   2.3347580  20.7101270
  44.6516970   3.2385250  19.6062180  44.0489960   4.6862240  19.1598750
  43.4806860   4.2380490  18.5334660  44.7578960   5.0455020  18.6263900
  39.1259140   8.5874260  33.0365480  38.7413930   7.9467930  33.6348440
  39.4371330   9.2910380  33.6060210  45.2756280   5.4350800  28.5174100
  45.6426410   4.9609370  29.2635440  45.0861340   6.3092370  28.8582440
  43.0655650   4.4759440  30.8358310  42.7612720   5.3551420  31.0608670
  44.0202110   4.5359230  30.8715750  41.5937440   8.6820430  21.4325160
  40.8199700   8.1418050  21.2723880  42.3232070   8.1627040  21.0942920
  52.3525420   7.6785790  27.2251550  53.0724540   8.1741080  26.8347660
  52.1507240   7.0003680  26.5805420  47.7344220   7.7494850  33.1120550
  47.6681530   6.8290520  32.8578140  47.1049360   7.8470290  33.8265190
  50.5283750   3.4443400  19.6643100  51.4163370   3.7560630  19.4894440
  50.4988840   2.5715650  19.2723680  41.6374840   8.3500810  25.0703970
  42.1553510   7.5469070  25.0160860  41.1858860   8.2879950  25.9120800
  46.5244340   9.6167090  20.3431270  46.8660040  10.3609320  19.8474590
  45.6957050   9.9298210  20.7056100  39.1219380   5.3162180  31.9829670
  38.7634320   5.9816030  32.5703010  38.8273940   4.4845730  32.3542290
  42.3232500   5.7746420  34.8669220  42.0232640   5.9203600  33.9697040
  43.0943740   5.2151710  34.7742610  47.6660950  10.5715420  32.8624350
  47.6805490   9.6396380  32.6443260  46.9586050  10.6575180  33.5014120
  52.7998020   4.7555240  19.1322960  52.7161740   5.1869460  18.2819400
  53.5192210   5.2153590  19.5649780  53.8772160   7.2122760  32.2092930
  53.1520350   7.8051540  32.0122320  54.4047620   7.2046300  31.4106300
  53.8285270  11.6097500  21.8605090  53.1861430  10.9553120  22.1348810
  53.4415930  12.0152590  21.0845760  49.4071750   8.9382930  25.7076780
  49.7595570   8.3411060  25.0478150  48.5234080   8.6127160  25.8785030
  45.4935030   9.6980620  23.1147190  46.1806160  10.2449830  23.4954780
  44.7067450  10.2421350  23.1496800  37.6327430   5.3153440  18.6064270
  38.5022280   5.5978240  18.8900190  37.1417750   6.1289310  18.4913080
  44.7962240   6.7026650  22.7272550  45.2525020   7.5131900  22.9532740
  44.4450450   6.3849790  23.5591040  47.0994850  12.2132990  29.9564850
  47.7437070  12.4192370  30.6338270  47.4624290  11.4521390  29.5035700
  48.3726930  10.2165340  28.6742300  49.0149160   9.5158500  28.7874470
  48.8976280  10.9963780  28.4939190  52.2182650  10.5013960  18.3981440
  51.9920230   9.7844400  18.9906080  51.8278850  10.2526400  17.5603190
  50.1464550  11.0160240  31.8778360  50.4820790  11.6026930  32.5556280
  49.2264890  10.8852950  32.1076150  37.9998680  14.5280820  19.1725900
  38.3596320  15.1270160  18.5183170  37.8591020  15.0740710  19.9460930
  51.7998900   8.4185900  20.0595600  51.5120600   8.8798590  20.8473480
  52.5951070   7.9583670  20.3279820  37.9840540  12.7935680  33.6468300
  38.0931660  11.8530420  33.5063690  37.3321100  13.0590430  32.9982030
  45.9753130  11.0651570  35.0466420  45.6550000  10.3460810  35.5912110
  45.3011490  11.7406640  35.1202480  44.0167300  11.9112020  19.9899570
  44.0077400  12.6441710  19.3744080  43.0965660  11.6643600  20.0826530
  39.6173940   7.1326910  20.7346330  39.0101890   7.8725810  20.7441630
  40.0923290   7.2226270  19.9084530  47.0026900  11.9740260  18.6524760
  47.1038880  11.7704250  17.7226740  46.1028640  11.7198540  18.8572540
  44.5252790   2.5320620  22.6348660  43.8168940   3.0006960  23.0762270
  44.8097270   1.8742630  23.2693850  46.1508720   3.9517320  30.6341190
  46.6493970   4.4263140  31.2993040  46.2931670   3.0280840  30.8411220
  45.6445010  14.4926580  23.3472430  45.8986510  14.4547970  22.4251800
  44.6957490  14.3659910  23.3400680  51.6497590   5.4118460  24.9230940
  50.7087730   5.4268690  25.0978630  51.9641660   4.6254420  25.3691240
  41.6279230   7.0938060  18.4834900  42.3942500   6.9819420  19.0460330
  41.7053920   6.3976030  17.8311670  40.3225990   4.5263130  19.1667790
  40.4029580   3.5790640  19.2785190  41.2145740   4.8570010  19.2728450
  53.6523170  12.5827310  26.5985200  53.7770590  13.4058480  27.0709010
  54.5188730  12.3718040  26.2509350  41.1240700  14.6758520  26.2702330
  41.8603180  14.1273980  26.5410900  41.5081620  15.5414530  26.1308320
  38.0086180  10.7432090  22.1443840  37.0825960  10.9853230  22.1349250
  38.4742610  11.5706350  22.0228590  44.2343010  13.8488830  18.0927900
  45.0271620  14.1377660  17.6409690  43.7147360  13.4181000  17.4140380
  48.9663610   9.9684460  35.4063320  48.3601770   9.9916060  34.6659070
  48.6617720   9.2367500  35.9430570  50.3963980  13.6964750  34.0172730
  51.3485730  13.6122770  33.9672970  50.2492200  14.3606460  34.6906520
  53.2873180  13.0758960  19.5164640  53.0014690  12.6624100  18.7018820
  53.0892730  14.0046670  19.3965160  37.8496790   6.3478050  34.4023960
  38.3535810   5.7685330  34.9740190  37.1104210   6.6318280  34.9400330
  44.7520410   9.0692240  17.9570250  44.6471050   8.4544590  18.6831630
  44.5844630   8.5458130  17.1733260  44.9034730   7.7549040  33.9359480
  44.1380400   8.3234040  33.8514150  45.0850690   7.4625250  33.0427710
  47.9923140   8.1312270  18.5612240  47.4433240   8.5781570  19.2054980
  48.6142400   7.6261520  19.0849910  52.0458080   9.4854370  34.4934500
  52.7867550   9.8230130  33.9901960  51.2830760   9.6546430  33.9404270
  39.8819870   4.4907640  35.2974030  39.9225210   4.1921510  36.2059260
  40.7365370   4.8915250  35.1381550  43.6598260   7.0903190  20.4577540
  44.0814680   6.9243060  21.3008930  43.7849100   6.2803420  19.9632680
  41.8225680   3.0699740  33.2648520  41.2922140   2.5790690  32.6371860
  42.4913750   3.4983940  32.7306450  46.1725900   6.1140800  17.7054640
  46.6931560   5.3989820  17.3395790  46.8194300   6.7526670  18.0055150
  50.7203740   7.5369200  33.0289710  51.1344760   7.6914280  33.8780130
  49.7854740   7.6624420  33.1915490  51.1925910   4.8765360  35.0328860
  51.7746680   4.1217680  34.9449340  51.3687680   5.4072800  34.2560340
  45.4818970   7.4889680  30.9985640  45.9007080   8.3322410  30.8261880
  44.5627600   7.6261720  30.7692420  47.8182870   5.2205860  32.3823480
  47.9379080   4.6247000  33.1218320  48.6776870   5.2575550  31.9624780
  50.1570770   5.7743050  30.9585990  49.6305990   6.2985670  30.3551130
  50.5002110   6.4070440  31.5895720  42.5557160   3.1636420  17.4035700
  42.3546220   2.3003780  17.7649040  42.3849210   3.0769780  16.4657300
  43.3326390  13.7942690  32.1143370  42.7947480  14.5188750  31.7952070
  43.5860350  13.3173030  31.3240710  46.1888600  15.0293900  32.3730020
  46.1147300  15.9329040  32.6802390  45.2867440  14.7105800  32.3452090
  46.7373930  14.1952410  19.9956380  47.6324720  14.5337380  20.0175140
  46.7691560  13.4731820  19.3680660  40.3770090   9.5679460  18.2243380
  40.8144960  10.1109130  18.8800960  40.8617820   8.7426410  18.2339720
  37.5915890  12.3568490  25.6763640  37.9218900  11.4889550  25.4442280
  38.0206890  12.5627010  26.5068600  42.1877810  10.6877500  23.3365610
  41.8873350  10.5642470  24.2369520  42.0815300   9.8286090  22.9281340
  38.0806100  13.2239080  28.4145270  37.6437090  13.4039880  29.2469420
  38.6483780  13.9813700  28.2726990  53.7168280  12.7256080  32.7022580
  53.1170270  12.7848640  31.9586500  53.8462180  11.7861060  32.8319430
  54.9569730  10.4673900  18.0392290  54.1262690  10.5350550  18.5099520
  55.1341560  11.3578020  17.7359150  54.4126190   7.2121380  20.5426490
  55.1745100   7.7818030  20.6486180  54.4280560   6.6448580  21.3134800
  37.9130530   5.7359310  24.7734150  37.2579370   5.4670950  24.1293850
  38.7508480   5.6263790  24.3236130  55.4186160   8.0671480  25.3868420
  55.7894990   7.2838800  24.9804390  56.0588090   8.7560580  25.2085720
  52.4019920   9.4508060  30.7998740  51.5879760   9.8805220  31.0624530
  52.8094120  10.0626470  30.1867790  54.4645360   7.5055750  17.6999010
  54.7394200   8.4134630  17.5718230  54.2756100   7.4418280  18.6361000
  54.3610700   5.4424740  22.6928440  53.9854300   4.6752670  22.2609730
  53.6313820   5.8247440  23.1803370  38.9506460   6.1211880  29.3137490
  39.3179500   6.0339280  30.1933510  38.3817280   5.3578430  29.2144350
  53.7510320   4.5896260  32.3267960  53.5196410   4.3609010  31.4265910
  54.0114870   5.5095810  32.2812850  38.5022460   3.0320970  33.2195910
  37.6078510   2.9987730  33.5589620  39.0420010   3.2307760  33.9847160
  37.1268610   2.9458240  20.7159480  36.2232690   3.2088440  20.5411140
  37.6109230   3.2169410  19.9359440  53.6361660   3.6682230  25.9935680
  54.1599140   3.1744880  25.3625850  54.2221080   3.8032590  26.7383250
  53.8151380   3.7522100  29.5155230  52.8654090   3.7185640  29.6300220
  53.9964390   4.6622210  29.2805000  53.1261630   2.9255580  21.9328090
  53.6220750   2.6926450  22.7176970  52.9277700   2.0867420  21.5165730
  52.4595970  14.2026660  24.3267010  53.0555040  13.8811230  23.6501430
  52.7174120  13.7298480  25.1180280  40.3658540  10.6344570  34.4757640
  40.3228170  10.2637480  35.3572100  40.4969550  11.5722140  34.6159460
  44.0664570  12.1904160  30.0767360  43.8255930  12.4578720  29.1897880
  45.0067210  12.3609890  30.1318220  55.3268730  14.2098540  30.8778000
  54.8327010  14.6067410  30.1605130  54.7182020  13.5847750  31.2715280
  40.2046570  13.5806820  31.5955420  39.6106890  13.4491520  32.3345460
  40.1970410  12.7444960  31.1297520  53.0108180  14.8521960  28.1564740
  52.5511150  15.6037770  27.7822760  52.3820640  14.1328430  28.0979540
  39.8358800  10.9465200  30.5463460  39.1092860  10.3270490  30.4789410
  39.8967950  11.3405810  29.6761540  43.4403900  13.1610200  27.3312870
  43.9568920  12.5497560  26.8061130  44.0901280  13.6638980  27.8223880
  46.1799400  14.0518690  28.1581850  46.4677210  13.7972990  27.2814860
  46.6922620  13.4996050  28.7487420  38.1188800  14.2639590  23.7560220
  37.9510840  13.6310270  24.4542110  37.2523310  14.4698990  23.4054410
  39.7251500  12.9572820  21.2010360  39.1999120  13.3380850  20.4972320
  39.6496080  13.5823590  21.9220070  46.2471760  14.9734790  35.5250050
  47.1739070  14.7379060  35.5686010  46.2322190  15.8006790  35.0436080
  54.4816820  14.5160360  22.5224300  54.6569010  13.8298100  21.8785220
  53.7838390  15.0407410  22.1300970  42.3244470  14.9055200  20.0759610
  43.0563290  14.6214480  19.5283500  42.5838140  14.6668480  20.9658990
  41.4859260  11.0219930  20.0805940  40.8568140  11.4905030  20.6291770
  41.6007090  10.1769150  20.5152130  52.8149320  14.2004650  35.3491090
  53.6074640  13.7053880  35.1417050  53.1082470  14.8794790  35.9566700
  48.9408980   5.0725590   6.2307140  48.8603030   4.1580200   5.9598850
  48.5273400   5.5692660   5.5246850  47.0727020   6.8504610   8.1116410
  46.2969120   6.3705050   8.4014980  47.7239950   6.1710260   7.9372570
  41.0892850   7.1624420   8.9892170  40.2577730   6.9073130   9.3888680
  41.6973830   7.2335190   9.7250090  51.0934450  11.2564800   6.8915540
  50.6315980  10.4852040   7.2202710  51.9060000  11.2830870   7.3967990
  41.0694110  11.1964510   9.1850190  41.3722150  10.3062250   9.0060410
  41.8137700  11.7534730   8.9572440  39.4984800   2.1226310   2.7734560
  38.6101500   2.4642280   2.6714440  39.7825990   1.9226630   1.8815390
  37.4617810   4.7231960   8.6574260  38.0333920   3.9554160   8.6577900
  37.4619350   5.0220720   7.7480870  47.3197760  13.5422810   6.5119530
  46.7009200  13.9980310   5.9413970  48.1749540  13.6974270   6.1109230
  46.5136010   9.5261800   8.1186570  46.4444290   8.5851740   7.9575700
  47.2755870   9.6163210   8.6909140  39.3229350   2.6276820   9.0525530
  40.0039460   2.8915190   9.6712930  39.0077400   1.7877690   9.3863540
  43.5153920   3.6744180   8.1398120  44.0232140   4.1725150   8.7803140
  44.0467160   2.8979380   7.9637480  55.6164850   1.8449370  11.8427470
  54.9117020   2.2331080  11.3242580  55.8822770   2.5399660  12.4448400
  48.1861110   8.4262050   3.9051440  47.5678380   8.8911500   3.3414160
  48.6984360   9.1189530   4.3220950  43.0492870   7.9537920  10.5835040
  42.7162250   8.5806840  11.2256110  43.2259550   8.4799800   9.8036710
  51.5626780   1.7683000   8.0511380  50.8582350   2.0567890   8.6314490
  51.9238940   2.5783110   7.6910940  42.2611970   9.9218720  12.3984220
  42.8785970  10.5969800  12.1168670  41.4005090  10.3306700  12.3071720
  53.1789560  11.3858130  10.3138860  52.4953080  12.0557240  10.3055530
  53.7183850  11.5838780   9.5483720  50.7148300  13.2302260   9.0284040
  50.7275460  12.8264550   8.1606300  50.1623520  14.0049550   8.9245470
  52.0093720   9.9518480   4.1174210  51.8990050   9.0092810   4.2423630
  52.0061970  10.3134120   5.0036970  50.1133740   8.1332100  10.3566650
  50.5302530   7.9192210   9.5220110  50.8373560   8.3904890  10.9275270
  47.5514000   5.5783800   3.4736700  46.6243280   5.5121180   3.7025170
  47.7038820   6.5163930   3.3591940  54.0595840   6.5319320  10.4482890
  53.2314470   6.6012410   9.9733020  54.6546320   7.1173630   9.9798720
  51.5811290   7.1404100   3.9771950  50.9623710   6.8023650   3.3298250
  51.5635740   6.4963860   4.6851140  51.0237850   3.3188640  11.3937760
  50.6109030   4.1442350  11.6477750  50.2913800   2.7333680  11.2014120
  43.1570640   6.1048540   6.2556430  42.7527640   5.3925790   5.7602330
  43.2433760   5.7601780   7.1444470  43.6252340   9.7916100   8.4195640
  43.3280630   9.1861570   7.7403420  44.5752160   9.8293410   8.3085000
  41.8699260   2.8791750  10.0355470  42.4213850   2.9887090   9.2608720
  42.3842770   3.2529350  10.7510700  51.7137950  13.3647970  12.0818740
  51.2368510  14.1720160  11.8891350  51.0299740  12.7126300  12.2344950
  42.7170770   9.5297790  15.0703440  41.8199300   9.7537760  15.3176840
  42.7423640   9.6532730  14.1214840  41.5441990   6.4011110  13.6460810
  41.4049760   7.2733910  14.0148210  40.6623350   6.0583920  13.5008750
  47.8671370  11.3186980   4.9525940  48.3067280  12.0611310   4.5381330
  47.8058260  11.5613550   5.8764900  43.3422340  12.3432810  15.8545960
  43.3137770  12.7475760  14.9874390  43.1787310  11.4143170  15.6917560
  39.8575270   4.9993520   3.7563080  39.7372870   5.7255610   3.1444350
  39.5476160   4.2296430   3.2790990  55.2937160  13.1259910  17.1510130
  55.7696880  13.6042800  17.8299210  55.9144320  13.0577400  16.4255630
  37.4960640   8.1708660   9.5631720  37.5741060   8.3057430   8.6187440
  38.1102320   7.4624550   9.7559840  38.7408270   9.8708850   5.9737900
  38.3336350  10.0123440   5.1191500  39.6321280   9.5869010   5.7709110
  54.6970410  10.3172760  14.3110140  54.8233470  10.0784640  13.3927320
  54.7391790   9.4857300  14.7832220  48.5587150  14.0200760  12.8804950
  49.0731820  13.9308770  13.6827380  47.7156230  14.3660460  13.1732860
  50.5341550  14.3056100   2.3088950  50.3742690  14.0159040   3.2070780
  50.3688260  13.5296230   1.7734180  43.0129930  14.0854630   4.0860570
  42.8372410  13.1690170   3.8728370  42.1585670  14.4441920   4.3258370
  49.8017610  13.4406370   4.9435440  50.2574560  12.6595750   5.2574060
  50.1410130  14.1513190   5.4876620  37.5520160   9.2122830  12.1026180
  37.7151200   8.7428190  11.2845550  38.0172610   8.7046390  12.7675020
  51.6113250   2.4306060  13.8718730  50.7606840   2.1311810  14.1927800
  51.4515040   2.6748070  12.9602550  48.7062960   3.9307810  15.9717520
  49.0316370   3.0971560  15.6319750  49.4943290   4.4536330  16.1195850
  42.1153150   3.4662160   4.8668000  41.8894070   3.2499330   5.7714620
  41.3345680   3.8990620   4.5213970  49.3450910   3.4725530   3.4658650
  48.7459800   4.1961330   3.2822270  49.8930520   3.4102310   2.6835100
  44.5552360   4.3647740  15.5328270  44.4595960   3.4242470  15.3828670
  45.3984340   4.5862810  15.1376340  48.5370920   4.6994820   9.5912710
  47.8052040   5.2081630   9.9402810  48.1395260   3.8824800   9.2901490
  39.1259140   8.5874260  14.2621990  38.7413930   7.9467930  14.8604950
  39.4371330   9.2910380  14.8316720  45.2756280   5.4350800   9.7430610
  45.6426410   4.9609370  10.4891950  45.0861340   6.3092370  10.0838950
  43.0655650   4.4759440  12.0614820  42.7612720   5.3551420  12.2865180
  44.0202110   4.5359230  12.0972260  41.5937440   8.6820430   2.6581670
  40.8199700   8.1418050   2.4980390  42.3232070   8.1627040   2.3199430
  52.3525420   7.6785790   8.4508060  53.0724540   8.1741080   8.0604170
  52.1507240   7.0003680   7.8061930  47.7344220   7.7494850  14.3377060
  47.6681530   6.8290520  14.0834650  47.1049360   7.8470290  15.0521700
  41.6374840   8.3500810   6.2960480  42.1553510   7.5469070   6.2417370
  41.1858860   8.2879950   7.1377310  39.1219380   5.3162180  13.2086180
  38.7634320   5.9816030  13.7959520  38.8273940   4.4845730  13.5798800
  42.3232500   5.7746420  16.0925730  42.0232640   5.9203600  15.1953550
  43.0943740   5.2151710  15.9999120  47.6660950  10.5715420  14.0880860
  47.6805490   9.6396380  13.8699770  46.9586050  10.6575180  14.7270630
  53.8772160   7.2122760  13.4349440  53.1520350   7.8051540  13.2378830
  54.4047620   7.2046300  12.6362810  53.8285270  11.6097500   3.0861600
  53.1861430  10.9553120   3.3605320  53.4415930  12.0152590   2.3102270
  49.4071750   8.9382930   6.9333290  49.7595570   8.3411060   6.2734660
  48.5234080   8.6127160   7.1041540  45.4935030   9.6980620   4.3403700
  46.1806160  10.2449830   4.7211290  44.7067450  10.2421350   4.3753310
  44.7962240   6.7026650   3.9529060  45.2525020   7.5131900   4.1789250
  44.4450450   6.3849790   4.7847550  47.0994850  12.2132990  11.1821360
  47.7437070  12.4192370  11.8594780  47.4624290  11.4521390  10.7292210
  48.3726930  10.2165340   9.8998810  49.0149160   9.5158500  10.0130980
  48.8976280  10.9963780   9.7195700  50.1464550  11.0160240  13.1034870
  50.4820790  11.6026930  13.7812790  49.2264890  10.8852950  13.3332660
  37.9840540  12.7935680  14.8724810  38.0931660  11.8530420  14.7320200
  37.3321100  13.0590430  14.2238540  45.9753130  11.0651570  16.2722930
  45.6550000  10.3460810  16.8168620  45.3011490  11.7406640  16.3458990
  44.5252790   2.5320620   3.8605170  43.8168940   3.0006960   4.3018780
  44.8097270   1.8742630   4.4950360  46.1508720   3.9517320  11.8597700
  46.6493970   4.4263140  12.5249550  46.2931670   3.0280840  12.0667730
  45.6445010  14.4926580   4.5728940  45.8986510  14.4547970   3.6508310
  44.6957490  14.3659910   4.5657190  51.6497590   5.4118460   6.1487450
  50.7087730   5.4268690   6.3235140  51.9641660   4.6254420   6.5947750
  53.6523170  12.5827310   7.8241710  53.7770590  13.4058480   8.2965520
  54.5188730  12.3718040   7.4765860  41.1240700  14.6758520   7.4958840
  41.8603180  14.1273980   7.7667410  41.5081620  15.5414530   7.3564830
  38.0086180  10.7432090   3.3700350  37.0825960  10.9853230   3.3605760
  38.4742610  11.5706350   3.2485100  40.1298980  13.8604590  16.6844420
  40.9311710  14.1816640  17.0979820  39.6150800  13.5000170  17.4064330
  48.9663610   9.9684460  16.6319830  48.3601770   9.9916060  15.8915580
  48.6617720   9.2367500  17.1687080  50.3963980  13.6964750  15.2429240
  51.3485730  13.6122770  15.1929480  50.2492200  14.3606460  15.9163030
  37.8496790   6.3478050  15.6280470  38.3535810   5.7685330  16.1996700
  37.1104210   6.6318280  16.1656840  44.9034730   7.7549040  15.1615990
  44.1380400   8.3234040  15.0770660  45.0850690   7.4625250  14.2684220
  52.0458080   9.4854370  15.7191010  52.7867550   9.8230130  15.2158470
  51.2830760   9.6546430  15.1660780  39.8819870   4.4907640  16.5230540
  39.9225210   4.1921510  17.4315770  40.7365370   4.8915250  16.3638060
  41.8225680   3.0699740  14.4905030  41.2922140   2.5790690  13.8628370
  42.4913750   3.4983940  13.9562960  50.7203740   7.5369200  14.2546220
  51.1344760   7.6914280  15.1036640  49.7854740   7.6624420  14.4172000
  51.1925910   4.8765360  16.2585370  51.7746680   4.1217680  16.1705850
  51.3687680   5.4072800  15.4816850  45.4818970   7.4889680  12.2242150
  45.9007080   8.3322410  12.0518390  44.5627600   7.6261720  11.9948930
  47.8182870   5.2205860  13.6079990  47.9379080   4.6247000  14.3474830
  48.6776870   5.2575550  13.1881290  50.1570770   5.7743050  12.1842500
  49.6305990   6.2985670  11.5807640  50.5002110   6.4070440  12.8152230
  43.3326390  13.7942690  13.3399880  42.7947480  14.5188750  13.0208580
  43.5860350  13.3173030  12.5497220  46.1888600  15.0293900  13.5986530
  46.1147300  15.9329040  13.9058900  45.2867440  14.7105800  13.5708600
  37.5915890  12.3568490   6.9020150  37.9218900  11.4889550   6.6698790
  38.0206890  12.5627010   7.7325110  42.1877810  10.6877500   4.5622120
  41.8873350  10.5642470   5.4626030  42.0815300   9.8286090   4.1537850
  38.0806100  13.2239080   9.6401780  37.6437090  13.4039880  10.4725930
  38.6483780  13.9813700   9.4983500  53.7168280  12.7256080  13.9279090
  53.1170270  12.7848640  13.1843010  53.8462180  11.7861060  14.0575940
  54.4126190   7.2121380   1.7683000  55.1745100   7.7818030   1.8742690
  54.4280560   6.6448580   2.5391310  37.9130530   5.7359310   5.9990660
  37.2579370   5.4670950   5.3550360  38.7508480   5.6263790   5.5492640
  55.4186160   8.0671480   6.6124930  55.7894990   7.2838800   6.2060900
  56.0588090   8.7560580   6.4342230  52.4019920   9.4508060  12.0255250
  51.5879760   9.8805220  12.2881040  52.8094120  10.0626470  11.4124300
  54.3610700   5.4424740   3.9184950  53.9854300   4.6752670   3.4866240
  53.6313820   5.8247440   4.4059880  38.9506460   6.1211880  10.5394000
  39.3179500   6.0339280  11.4190020  38.3817280   5.3578430  10.4400860
  53.7510320   4.5896260  13.5524470  53.5196410   4.3609010  12.6522420
  54.0114870   5.5095810  13.5069360  38.5022460   3.0320970  14.4452420
  37.6078510   2.9987730  14.7846130  39.0420010   3.2307760  15.2103670
  53.6361660   3.6682230   7.2192190  54.1599140   3.1744880   6.5882360
  54.2221080   3.8032590   7.9639760  53.8151380   3.7522100  10.7411740
  52.8654090   3.7185640  10.8556730  53.9964390   4.6622210  10.5061510
  53.1261630   2.9255580   3.1584600  53.6220750   2.6926450   3.9433480
  52.9277700   2.0867420   2.7422240  52.4595970  14.2026660   5.5523520
  53.0555040  13.8811230   4.8757940  52.7174120  13.7298480   6.3436790
  40.3658540  10.6344570  15.7014150  40.3228170  10.2637480  16.5828610
  40.4969550  11.5722140  15.8415970  44.0664570  12.1904160  11.3023870
  43.8255930  12.4578720  10.4154390  45.0067210  12.3609890  11.3574730
  55.3268730  14.2098540  12.1034510  54.8327010  14.6067410  11.3861640
  54.7182020  13.5847750  12.4971790  40.2046570  13.5806820  12.8211930
  39.6106890  13.4491520  13.5601970  40.1970410  12.7444960  12.3554030
  53.0108180  14.8521960   9.3821250  52.5511150  15.6037770   9.0079270
  52.3820640  14.1328430   9.3236050  39.8358800  10.9465200  11.7719970
  39.1092860  10.3270490  11.7045920  39.8967950  11.3405810  10.9018050
  43.4403900  13.1610200   8.5569380  43.9568920  12.5497560   8.0317640
  44.0901280  13.6638980   9.0480390  46.1799400  14.0518690   9.3838360
  46.4677210  13.7972990   8.5071370  46.6922620  13.4996050   9.9743930
  38.1188800  14.2639590   4.9816730  37.9510840  13.6310270   5.6798620
  37.2523310  14.4698990   4.6310920  39.7251500  12.9572820   2.4266870
  39.1999120  13.3380850   1.7228830  39.6496080  13.5823590   3.1476580
  46.2471760  14.9734790  16.7506560  47.1739070  14.7379060  16.7942520
  46.2322190  15.8006790  16.2692590  54.4816820  14.5160360   3.7480810
  54.6569010  13.8298100   3.1041730  53.7838390  15.0407410   3.3557480
  52.8149320  14.2004650  16.5747600  53.6074640  13.7053880  16.3673560
  53.1082470  14.8794790  17.1823210  30.1665490  80.1699550  81.3281100
  30.0859540  79.2554160  81.0572810  29.7529910  80.6666620  80.6220810
  28.2983530  81.9478570  83.2090370  27.5225630  81.4679010  83.4988940
  28.9496460  81.2684220  83.0346530  22.3149360  82.2598380  84.0866130
  21.4834240  82.0047090  84.4862640  22.9230340  82.3309150  84.8224050
  20.7241310  77.2200270  77.8708520  19.8358010  77.5616240  77.7688400
  21.0082500  77.0200590  76.9789350  18.6874320  79.8205920  83.7548220
  19.2590430  79.0528120  83.7551860  18.6875860  80.1194680  82.8454830
  27.7392520  84.6235760  83.2160530  27.6700800  83.6825700  83.0549660
  28.5012380  84.7137170  83.7883100  19.9299190  75.2290280  85.5417150
  19.7502030  74.3316030  85.8219910  19.5279270  75.7762150  86.2164100
  28.7697690  77.4306140  83.4429460  29.1462510  76.5578020  83.3303130
  28.6717200  77.7664840  82.5519900  22.9002700  75.8031770  78.9046900
  23.0069450  76.7035500  79.2115660  21.9895060  75.7549740  78.6141550
  32.5521810  74.9256580  80.3757800  33.3731430  74.4353150  80.4183280
  32.5855890  75.5154240  81.1289640  20.5485860  77.7250780  84.1499490
  21.2295970  77.9889150  84.7686890  20.2333910  76.8851650  84.4837500
  24.7410430  78.7718140  83.2372080  25.2488650  79.2699110  83.8777100
  25.2723670  77.9953340  83.0611440  36.8421360  76.9423330  86.9401430
  36.1373530  77.3305040  86.4216540  37.1079280  77.6373620  87.5422360
  23.0246530  73.4116700  87.5035500  23.0264970  73.9289090  86.6981400
  22.1950840  72.9346880  87.4805430  29.4117620  83.5236010  79.0025400
  28.7934890  83.9885460  78.4388120  29.9240870  84.2163490  79.4194910
  24.2749380  83.0511880  85.6809000  23.9418760  83.6780800  86.3230070
  24.4516060  83.5773760  84.9010670  32.7883290  76.8656960  83.1485340
  32.0838860  77.1541850  83.7288450  33.1495450  77.6757070  82.7884900
  22.7061860  75.1226660  85.5105950  23.0478670  75.9668710  85.2159820
  21.7677670  75.2710400  85.6271290  18.7800820  84.2092540  76.3765030
  18.4028800  84.6979640  75.6449930  19.0373890  84.8817820  77.0071560
  35.8570210  76.3111750  83.5394550  34.9095120  76.3450730  83.6709980
  36.1820200  77.1250700  83.9243910  26.3889750  72.6108930  81.8350540
  26.6964730  72.0555820  81.1186040  25.4590450  72.7453390  81.6523530
  31.3390250  83.2306060  85.4540610  31.7559040  83.0166170  84.6194070
  32.0630070  83.4878850  86.0249230  28.7770510  80.6757760  78.5710660
  27.8499790  80.6095140  78.7999130  28.9295330  81.6137890  78.4565900
  28.7639590  76.9474760  75.5677820  27.8243260  77.1088720  75.6530280
  29.0822850  77.6660440  75.0213810  35.2852350  81.6293280  85.5456850
  34.4570980  81.6986370  85.0706980  35.8802830  82.2147590  85.0772680
  32.8067800  82.2378060  79.0745910  32.1880220  81.8997610  78.4272210
  32.7892250  81.5937820  79.7825100  32.2494360  78.4162600  86.4911720
  31.8365540  79.2416310  86.7451710  31.5170310  77.8307640  86.2988080
  24.3827150  81.2022500  81.3530390  23.9784150  80.4899750  80.8576290
  24.4690270  80.8575740  82.2418430  24.8508850  84.8890060  83.5169600
  24.5537140  84.2835530  82.8377380  25.8008670  84.9267370  83.4058960
  23.0955770  77.9765710  85.1329430  23.6470360  78.0861050  84.3582680
  23.6099280  78.3503310  85.8484660  30.9832500  81.4764870  76.0818660
  31.4225780  80.6387300  75.9356480  31.6960920  82.1094270  76.1682800
  22.7698500  81.4985070  88.7434770  22.6306270  82.3707870  89.1122170
  21.8879860  81.1557880  88.5982710  34.5649640  72.7307680  74.3959700
  34.2522300  72.8234510  75.2958770  35.3262110  73.3088710  74.3457130
  21.0831780  80.0967480  78.8537040  20.9629380  80.8229570  78.2418310
  20.7732670  79.3270390  78.3764950  18.7217150  83.2682620  84.6605680
  18.7997570  83.4031390  83.7161400  19.3358830  82.5598510  84.8533800
  18.7776670  84.3096790  87.2000140  18.9407710  83.8402150  86.3819510
  19.2429120  83.8020350  87.8648980  23.5495440  73.4402550  82.2360710
  23.1063590  74.2212090  81.9045230  24.1080430  73.7632440  82.9431650
  27.8365250  76.3071070  87.8396030  27.3744620  76.5154090  88.6515970
  27.4343360  75.4930420  87.5366700  26.6654260  73.0613250  77.1166540
  26.0408440  73.0573120  77.8419850  26.5784380  72.1944210  76.7202510
  25.5871340  73.9849880  84.0950310  25.8843670  74.8912710  84.0142330
  26.1356900  73.4968660  83.4809880  23.3409660  78.5636120  79.9641960
  23.1150580  78.3473290  80.8688580  22.5602190  78.9964580  79.6187930
  30.5707420  78.5699490  78.5632610  29.9716310  79.2935290  78.3796230
  31.1187030  78.5076270  77.7809060  29.1772290  77.2063030  80.5935890
  29.5701860  77.5235230  79.7804580  29.5389140  76.3274910  80.7080410
  20.9119410  75.8735370  88.7836010  20.5182800  76.7210580  88.9908790
  20.2237810  75.2361740  88.9744650  18.2136460  73.7963830  82.8166090
  17.9249510  74.3666690  83.5291070  18.9582220  73.3168280  83.1797320
  18.4006690  77.7383950  74.0268810  18.3181360  78.6814710  74.1683800
  18.0489750  77.5958860  73.1481160  29.7627430  79.7968780  84.6886670
  29.0308550  80.3055590  85.0376770  29.3651770  78.9798760  84.3875450
  26.2004820  76.4722980  83.0939160  26.2040880  76.0312930  82.2443700
  27.0955940  76.7940310  83.2010980  22.0507200  76.3549470  82.0533370
  21.7107250  76.8324700  82.8100420  21.2884520  75.9014590  81.6934470
  26.2624970  77.4735060  76.0845920  26.3837790  77.4321540  77.0331740
  25.8773480  78.3359210  75.9292650  30.2253340  75.2502460  84.1009610
  30.2426080  75.7011110  84.9451460  29.9768920  74.3508100  84.3143050
  25.2746470  79.7836200  75.4829220  24.7063370  79.3354450  74.8565130
  25.9835470  80.1428980  74.9494370  26.5012790  80.5324760  84.8404570
  26.8682920  80.0583330  85.5865910  26.3117850  81.4066330  85.1812910
  19.3653280  75.2768450  80.9698040  19.0800200  74.9124120  81.8076660
  19.3032140  74.5448910  80.3561180  24.2912160  79.5733400  87.1588780
  23.9869230  80.4525380  87.3839140  25.2458620  79.6333190  87.1946220
  22.8193950  83.7794390  77.7555630  22.0456210  83.2392010  77.5954350
  23.5488580  83.2601000  77.4173390  33.5781930  82.7759750  83.5482020
  34.2981050  83.2715040  83.1578130  33.3763750  82.0977640  82.9035890
  29.0391870  74.1697710  77.6911410  28.2256480  73.6710880  77.6156720
  28.8453820  75.0095960  77.2747760  31.7540260  78.5417360  75.9873570
  32.6419880  78.8534590  75.8124910  31.7245350  77.6689610  75.5954150
  22.8631350  83.4474770  81.3934440  23.3810020  82.6443030  81.3391330
  22.4115370  83.3853910  82.2351270  20.3475890  80.4136140  88.3060140
  19.9890830  81.0789990  88.8933480  20.0530450  79.5819690  88.6772760
  34.0254530  79.8529200  75.4553430  33.9418250  80.2843420  74.6049870
  34.7448720  80.3127550  75.8880250  35.1028670  82.3096720  88.5323400
  34.3776860  82.9025500  88.3352790  35.6304130  82.3020260  87.7336770
  30.6328260  84.0356890  82.0307250  30.9852080  83.4385020  81.3708620
  29.7490590  83.7101120  82.2015500  18.8583940  80.4127400  74.9294740
  19.7278790  80.6952200  75.2130660  18.3674260  81.2263270  74.8143550
  26.0218750  81.8000610  79.0503020  26.4781530  82.6105860  79.2763210
  25.6706960  81.4823750  79.8821510  21.9230530  72.1438260  79.5225540
  21.7945160  72.1356160  80.4710460  21.0992550  72.4821350  79.1716550
  33.0255410  83.5159860  76.3826070  32.7377110  83.9772550  77.1703950
  33.8207580  83.0557630  76.6510290  20.8430450  82.2300870  77.0576800
  20.2358400  82.9699770  77.0672100  21.3179800  82.3200230  76.2315000
  30.4163240  76.3951690  86.7333690  30.7844060  75.5746900  87.0613260
  29.5561440  76.4553580  87.1489340  33.7825270  75.3508630  77.5421250
  33.1538430  75.4554300  76.8279480  33.2877190  75.5705410  78.3315130
  25.7509300  77.6294580  78.9579130  25.0425450  78.0980920  79.3992740
  26.0353780  76.9716590  79.5924320  27.3765230  79.0491280  86.9571660
  27.8750480  79.5237100  87.6223510  27.5188180  78.1254800  87.1641690
  29.7824730  74.3545240  80.3974920  29.6592510  74.3731370  79.4484430
  30.7309290  74.4024180  80.5173320  23.9544320  75.9379660  76.3329840
  24.8034850  76.3749810  76.2670030  23.5875590  76.2499920  77.1601900
  34.5832090  75.2659240  87.8000050  34.0805690  76.0064640  88.1393860
  35.3988750  75.6543240  87.4836840  32.8754100  80.5092420  81.2461410
  31.9344240  80.5242650  81.4209100  33.1898170  79.7228380  81.6921710
  22.8535740  82.1912020  74.8065370  23.6199010  82.0793380  75.3690800
  22.9310430  81.4949990  74.1542140  21.5482500  79.6237090  75.4898260
  21.6286090  78.6764600  75.6015660  22.4402250  79.9543970  75.5958920
  25.9776920  84.1666200  74.2800720  25.8727560  83.5518550  75.0062100
  25.8101140  83.6432090  73.4963730  29.2179650  83.2286230  74.8842710
  28.6689750  83.6755530  75.5285450  29.8398910  82.7235480  75.4080380
  24.8854770  82.1877150  76.7808010  25.3071190  82.0217020  77.6239400
  25.0105610  81.3777380  76.2863150  27.3982410  81.2114760  74.0285110
  27.9188070  80.4963780  73.6626260  28.0450810  81.8500630  74.3285620
  26.3015930  73.6909310  86.7003670  25.8533230  73.7133570  85.8549220
  25.6681130  73.2928330  87.2973970  26.7075480  82.5863640  87.3216110
  27.1263590  83.4296370  87.1492350  25.7884110  82.7235680  87.0922890
  31.3827280  80.8717010  87.2816460  30.8562500  81.3959630  86.6781600
  31.7258620  81.5044400  87.9126190  23.7813670  78.2610380  73.7266170
  23.5802730  77.3977740  74.0879510  23.6105720  78.1743740  72.7887770
  31.2601980  73.0718610  76.2553050  31.5404270  72.2286510  76.6112470
  30.4867710  73.3041720  76.7691800  22.5796470  75.3611000  73.7144050
  22.8822370  75.3678430  72.8063200  23.3191060  75.0108860  74.2111710
  25.7981400  74.3045620  74.7000250  25.4503400  73.6269610  74.1202700
  25.9994170  73.8435130  75.5143640  35.6382700  82.3095340  76.8656960
  36.4001610  82.8791990  76.9716650  35.6537070  81.7422540  77.6365270
  19.1387040  80.8333270  81.0964620  18.4835880  80.5644910  80.4524320
  19.9764990  80.7237750  80.6466600  36.6442670  83.1645440  81.7098890
  37.0151500  82.3812760  81.3034860  37.2844600  83.8534540  81.5316190
  35.6901870  82.6029710  74.0229480  35.9650710  83.5108590  73.8948700
  35.5012610  82.5392240  74.9591470  32.0877480  75.6274560  75.3183110
  32.5062360  75.4405540  74.4779770  31.7813540  74.7753610  75.6286040
  35.5867210  80.5398700  79.0158910  35.2110810  79.7726630  78.5840200
  34.8570330  80.9221400  79.5033840  20.1762970  81.2185840  85.6367960
  20.5436010  81.1313240  86.5163980  19.6073790  80.4552390  85.5374820
  34.9766830  79.6870220  88.6498430  34.7452920  79.4582970  87.7496380
  35.2371380  80.6069770  88.6043320  18.3525120  78.0432200  77.0389950
  17.4489200  78.3062400  76.8641610  18.8365740  78.3143370  76.2589910
  34.8618170  78.7656190  82.3166150  35.3855650  78.2718840  81.6856320
  35.4477590  78.9006550  83.0613720  35.0407890  78.8496060  85.8385700
  34.0910600  78.8159600  85.9530690  35.2220900  79.7596170  85.6035470
  20.8952330  77.0997740  74.9484330  21.6044030  76.6780960  74.4631610
  20.1792270  77.1672970  74.3167680  20.5426490  73.1537070  73.9886980
  21.2654620  73.6946010  74.3068200  20.8151010  72.8800490  73.1128520
  34.3518140  78.0229540  78.2558560  34.8477260  77.7900410  79.0407440
  34.1534210  77.1841380  77.8396200  20.2318680  72.4043260  83.8909600
  20.8794870  71.8540640  83.4504760  20.6520520  72.6586410  84.7125410
  35.7805300  76.6590490  80.7896240  35.6704580  76.5046530  81.7278510
  36.5412890  76.1311430  80.5471650  34.1271020  72.5984620  87.2479240
  34.7643240  73.2118760  87.6138430  34.2745910  72.6345280  86.3028470
  36.6695570  74.4898410  74.0302380  37.5944880  74.3579590  73.8220670
  36.6471360  74.5691230  74.9838830  36.7434060  75.2609070  76.6559090
  35.9485560  75.1954190  77.1852000  36.9477340  76.1959710  76.6444440
  19.9850680  72.5598930  86.6334920  19.6365500  73.0162750  87.3993100
  19.6538380  71.6656060  86.7157350  30.8758100  71.9713010  86.1215920
  30.0017940  72.3048120  85.9188850  30.7668850  71.4986190  86.9467790
  31.7830080  74.1783880  87.5057640  31.4543440  73.3635640  87.1259370
  32.7312380  74.1353690  87.3823330  28.6232920  72.8882850  85.0608830
  27.8404710  73.3628350  85.3405590  28.3295850  71.9837680  84.9522010
  33.1753990  73.5905950  83.1057920  33.6162080  73.5351050  82.2579520
  32.9061580  74.5063960  83.1768100  35.0392560  73.2221190  81.1166740
  34.9780960  72.2782410  80.9697760  35.8184590  73.3301280  81.6620200
  19.9673330  73.1930330  77.5822550  20.7252690  73.3059210  77.0086580
  19.5050500  74.0299530  77.5365980  26.5087140  75.3069600  80.5724860
  25.6961650  74.9326490  80.2320740  27.0128780  74.5514680  80.8746050
  31.0112120  71.9712050  81.8107930  31.6141490  72.5432260  82.2856450
  30.2705110  72.5351490  81.5881830  34.1546720  72.3733610  77.0848210
  34.3497350  73.2717060  77.3515640  33.3676590  72.1420690  77.5781160
  22.3398480  73.7194380  76.1224520  22.8691240  72.9324180  75.9932470
  22.9726800  74.3985570  76.3560050  24.5336320  73.4569520  79.1769910
  23.9039060  72.7556830  79.3440040  23.9941460  74.2173650  78.9603070
  30.1665490  80.1699550  62.5537610  30.0859540  79.2554160  62.2829320
  29.7529910  80.6666620  61.8477320  28.2983530  81.9478570  64.4346880
  27.5225630  81.4679010  64.7245450  28.9496460  81.2684220  64.2603040
  22.3149360  82.2598380  65.3122640  21.4834240  82.0047090  65.7119150
  22.9230340  82.3309150  66.0480560  20.7241310  77.2200270  59.0965030
  19.8358010  77.5616240  58.9944910  21.0082500  77.0200590  58.2045860
  18.6874320  79.8205920  64.9804730  19.2590430  79.0528120  64.9808370
  18.6875860  80.1194680  64.0711340  27.7392520  84.6235760  64.4417040
  27.6700800  83.6825700  64.2806170  28.5012380  84.7137170  65.0139610
  19.9299190  75.2290280  66.7673660  19.7502030  74.3316030  67.0476420
  19.5279270  75.7762150  67.4420610  28.7697690  77.4306140  64.6685970
  29.1462510  76.5578020  64.5559640  28.6717200  77.7664840  63.7776410
  22.9002700  75.8031770  60.1303410  23.0069450  76.7035500  60.4372170
  21.9895060  75.7549740  59.8398060  32.5521810  74.9256580  61.6014310
  33.3731430  74.4353150  61.6439790  32.5855890  75.5154240  62.3546150
  20.5485860  77.7250780  65.3756000  21.2295970  77.9889150  65.9943400
  20.2333910  76.8851650  65.7094010  24.7410430  78.7718140  64.4628590
  25.2488650  79.2699110  65.1033610  25.2723670  77.9953340  64.2867950
  36.8421360  76.9423330  68.1657940  36.1373530  77.3305040  67.6473050
  37.1079280  77.6373620  68.7678870  23.0246530  73.4116700  68.7292010
  23.0264970  73.9289090  67.9237910  22.1950840  72.9346880  68.7061940
  29.4117620  83.5236010  60.2281910  28.7934890  83.9885460  59.6644630
  29.9240870  84.2163490  60.6451420  24.2749380  83.0511880  66.9065510
  23.9418760  83.6780800  67.5486580  24.4516060  83.5773760  66.1267180
  32.7883290  76.8656960  64.3741850  32.0838860  77.1541850  64.9544960
  33.1495450  77.6757070  64.0141410  22.7061860  75.1226660  66.7362460
  23.0478670  75.9668710  66.4416330  21.7677670  75.2710400  66.8527800
  18.7800820  84.2092540  57.6021540  18.4028800  84.6979640  56.8706440
  19.0373890  84.8817820  58.2328070  35.8570210  76.3111750  64.7651060
  34.9095120  76.3450730  64.8966490  36.1820200  77.1250700  65.1500420
  26.3889750  72.6108930  63.0607050  26.6964730  72.0555820  62.3442550
  25.4590450  72.7453390  62.8780040  31.3390250  83.2306060  66.6797120
  31.7559040  83.0166170  65.8450580  32.0630070  83.4878850  67.2505740
  28.7770510  80.6757760  59.7967170  27.8499790  80.6095140  60.0255640
  28.9295330  81.6137890  59.6822410  28.7639590  76.9474760  56.7934330
  27.8243260  77.1088720  56.8786790  29.0822850  77.6660440  56.2470320
  35.2852350  81.6293280  66.7713360  34.4570980  81.6986370  66.2963490
  35.8802830  82.2147590  66.3029190  32.8067800  82.2378060  60.3002420
  32.1880220  81.8997610  59.6528720  32.7892250  81.5937820  61.0081610
  32.2494360  78.4162600  67.7168230  31.8365540  79.2416310  67.9708220
  31.5170310  77.8307640  67.5244590  24.3827150  81.2022500  62.5786900
  23.9784150  80.4899750  62.0832800  24.4690270  80.8575740  63.4674940
  24.8508850  84.8890060  64.7426110  24.5537140  84.2835530  64.0633890
  25.8008670  84.9267370  64.6315470  23.0955770  77.9765710  66.3585940
  23.6470360  78.0861050  65.5839190  23.6099280  78.3503310  67.0741170
  23.9427280  84.6271750  71.3933910  23.0455810  84.8511720  71.6407310
  23.9680150  84.7506690  70.4445310  30.9832500  81.4764870  57.3075170
  31.4225780  80.6387300  57.1612990  31.6960920  82.1094270  57.3939310
  22.7698500  81.4985070  69.9691280  22.6306270  82.3707870  70.3378680
  21.8879860  81.1557880  69.8239220  34.5649640  72.7307680  55.6216210
  34.2522300  72.8234510  56.5215280  35.3262110  73.3088710  55.5713640
  21.0831780  80.0967480  60.0793550  20.9629380  80.8229570  59.4674820
  20.7732670  79.3270390  59.6021460  18.7217150  83.2682620  65.8862190
  18.7997570  83.4031390  64.9417910  19.3358830  82.5598510  66.0790310
  35.7750930  77.4679180  71.5990350  35.1595200  77.9758850  71.0705810
  35.4547350  76.5677510  71.5416290  18.7776670  84.3096790  68.4256650
  18.9407710  83.8402150  67.6076020  19.2429120  83.8020350  69.0905490
  23.5495440  73.4402550  63.4617220  23.1063590  74.2212090  63.1301740
  24.1080430  73.7632440  64.1688160  27.8365250  76.3071070  69.0652540
  27.3744620  76.5154090  69.8772480  27.4343360  75.4930420  68.7623210
  32.8369760  77.5280020  70.1949200  31.9863350  77.2285770  70.5158270
  32.6771550  77.7722030  69.2833020  29.9319470  79.0281770  72.2947990
  30.2572880  78.1945520  71.9550220  30.7199800  79.5510290  72.4426320
  26.6654260  73.0613250  58.3423050  26.0408440  73.0573120  59.0676360
  26.5784380  72.1944210  57.9459020  25.5871340  73.9849880  65.3206820
  25.8843670  74.8912710  65.2398840  26.1356900  73.4968660  64.7066390
  23.3409660  78.5636120  61.1898470  23.1150580  78.3473290  62.0945090
  22.5602190  78.9964580  60.8444440  30.5707420  78.5699490  59.7889120
  29.9716310  79.2935290  59.6052740  31.1187030  78.5076270  59.0065570
  25.7808870  79.4621700  71.8558740  25.6852470  78.5216430  71.7059140
  26.6240850  79.6836770  71.4606810  29.1772290  77.2063030  61.8192400
  29.5701860  77.5235230  61.0061090  29.5389140  76.3274910  61.9336920
  20.9119410  75.8735370  70.0092520  20.5182800  76.7210580  70.2165300
  20.2237810  75.2361740  70.2001160  27.4864460  75.9570340  73.0789260
  26.7962780  75.7642540  73.7135350  28.2296760  76.2404980  73.6113560
  18.2136460  73.7963830  64.0422600  17.9249510  74.3666690  64.7547580
  18.9582220  73.3168280  64.4053830  18.4006690  77.7383950  55.2525320
  18.3181360  78.6814710  55.3940310  18.0489750  77.5958860  54.3737670
  29.7627430  79.7968780  65.9143180  29.0308550  80.3055590  66.2633280
  29.3651770  78.9798760  65.6131960  26.2004820  76.4722980  64.3195670
  26.2040880  76.0312930  63.4700210  27.0955940  76.7940310  64.4267490
  22.0507200  76.3549470  63.2789880  21.7107250  76.8324700  64.0356930
  21.2884520  75.9014590  62.9190980  26.2624970  77.4735060  57.3102430
  26.3837790  77.4321540  58.2588250  25.8773480  78.3359210  57.1549160
  30.2253340  75.2502460  65.3266120  30.2426080  75.7011110  66.1707970
  29.9768920  74.3508100  65.5399560  25.2746470  79.7836200  56.7085730
  24.7063370  79.3354450  56.0821640  25.9835470  80.1428980  56.1750880
  33.6524090  72.6634640  71.1652500  33.9769860  71.9324300  71.6910480
  33.6880600  72.3448280  70.2633490  20.3515650  83.6848220  70.5852460
  19.9670440  83.0441890  71.1835420  20.6627840  84.3884340  71.1547190
  26.5012790  80.5324760  66.0661080  26.8682920  80.0583330  66.8122420
  26.3117850  81.4066330  66.4069420  19.3653280  75.2768450  62.1954550
  19.0800200  74.9124120  63.0333170  19.3032140  74.5448910  61.5817690
  24.2912160  79.5733400  68.3845290  23.9869230  80.4525380  68.6095650
  25.2458620  79.6333190  68.4202730  22.8193950  83.7794390  58.9812140
  22.0456210  83.2392010  58.8210860  23.5488580  83.2601000  58.6429900
  33.5781930  82.7759750  64.7738530  34.2981050  83.2715040  64.3834640
  33.3763750  82.0977640  64.1292400  29.0391870  74.1697710  58.9167920
  28.2256480  73.6710880  58.8413230  28.8453820  75.0095960  58.5004270
  28.9600730  82.8468810  70.6607530  28.8938040  81.9264480  70.4065120
  28.3305870  82.9444250  71.3752170  31.7540260  78.5417360  57.2130080
  32.6419880  78.8534590  57.0381420  31.7245350  77.6689610  56.8210660
  22.8631350  83.4474770  62.6190950  23.3810020  82.6443030  62.5647840
  22.4115370  83.3853910  63.4607780  20.3475890  80.4136140  69.5316650
  19.9890830  81.0789990  70.1189990  20.0530450  79.5819690  69.9029270
  23.5489010  80.8720380  72.4156200  23.2489150  81.0177560  71.5184020
  24.3200250  80.3125670  72.3229590  34.0254530  79.8529200  56.6809940
  33.9418250  80.2843420  55.8306380  34.7448720  80.3127550  57.1136760
  35.1028670  82.3096720  69.7579910  34.3776860  82.9025500  69.5609300
  35.6304130  82.3020260  68.9593280  30.6328260  84.0356890  63.2563760
  30.9852080  83.4385020  62.5965130  29.7490590  83.7101120  63.4272010
  18.8583940  80.4127400  56.1551250  19.7278790  80.6952200  56.4387170
  18.3674260  81.2263270  56.0400060  26.0218750  81.8000610  60.2759530
  26.4781530  82.6105860  60.5019720  25.6706960  81.4823750  61.1078020
  21.9230530  72.1438260  60.7482050  21.7945160  72.1356160  61.6966970
  21.0992550  72.4821350  60.3973060  18.9224460  73.9029380  70.2088750
  18.2082980  74.1026300  70.8141360  19.3419500  73.1268950  70.5803550
  33.0255410  83.5159860  57.6082580  32.7377110  83.9772550  58.3960460
  33.8207580  83.0557630  57.8766800  20.8430450  82.2300870  58.2833310
  20.2358400  82.9699770  58.2928610  21.3179800  82.3200230  57.4571510
  30.4163240  76.3951690  67.9590200  30.7844060  75.5746900  68.2869770
  29.5561440  76.4553580  68.3745850  33.7825270  75.3508630  58.7677760
  33.1538430  75.4554300  58.0535990  33.2877190  75.5705410  59.5571640
  25.7509300  77.6294580  60.1835640  25.0425450  78.0980920  60.6249250
  26.0353780  76.9716590  60.8180830  27.3765230  79.0491280  68.1828170
  27.8750480  79.5237100  68.8480020  27.5188180  78.1254800  68.3898200
  29.7824730  74.3545240  61.6231430  29.6592510  74.3731370  60.6740940
  30.7309290  74.4024180  61.7429830  23.9544320  75.9379660  57.5586350
  24.8034850  76.3749810  57.4926540  23.5875590  76.2499920  58.3858410
  34.5832090  75.2659240  69.0256560  34.0805690  76.0064640  69.3650370
  35.3988750  75.6543240  68.7093350  32.8754100  80.5092420  62.4717920
  31.9344240  80.5242650  62.6465610  33.1898170  79.7228380  62.9178220
  22.8535740  82.1912020  56.0321880  23.6199010  82.0793380  56.5947310
  22.9310430  81.4949990  55.3798650  21.5482500  79.6237090  56.7154770
  21.6286090  78.6764600  56.8272170  22.4402250  79.9543970  56.8215430
  30.1920120  85.0658420  72.9550300  29.5858280  85.0890020  72.2146050
  29.8874230  84.3341460  73.4917550  19.0753300  81.4452010  71.9510940
  19.5792320  80.8659290  72.5227170  18.3360720  81.7292240  72.4887310
  25.9776920  84.1666200  55.5057230  25.8727560  83.5518550  56.2318610
  25.8101140  83.6432090  54.7220240  26.1291240  82.8523000  71.4846460
  25.3636910  83.4208000  71.4001130  26.3107200  82.5599210  70.5914690
  29.2179650  83.2286230  56.1099220  28.6689750  83.6755530  56.7541960
  29.8398910  82.7235480  56.6336890  33.2714590  84.5828330  72.0421480
  34.0124060  84.9204090  71.5388940  32.5087270  84.7520390  71.4891250
  21.1076380  79.5881600  72.8461010  21.1481720  79.2895470  73.7546240
  21.9621880  79.9889210  72.6868530  24.8854770  82.1877150  58.0064520
  25.3071190  82.0217020  58.8495910  25.0105610  81.3777380  57.5119660
  23.0482190  78.1673700  70.8135500  22.5178650  77.6764650  70.1858840
  23.7170260  78.5957900  70.2793430  27.3982410  81.2114760  55.2541620
  27.9188070  80.4963780  54.8882770  28.0450810  81.8500630  55.5542130
  31.9460250  82.6343160  70.5776690  32.3601270  82.7888240  71.4267110
  31.0111250  82.7598380  70.7402470  32.4182420  79.9739320  72.5815840
  33.0003190  79.2191640  72.4936320  32.5944190  80.5046760  71.8047320
  23.5354490  75.1336070  70.8932790  23.4411360  74.5156820  70.1683660
  22.9551880  75.8602360  70.6662700  26.3015930  73.6909310  67.9260180
  25.8533230  73.7133570  67.0805730  25.6681130  73.2928330  68.5230480
  26.7075480  82.5863640  68.5472620  27.1263590  83.4296370  68.3748860
  25.7884110  82.7235680  68.3179400  29.0439380  80.3179820  69.9310460
  29.1635590  79.7220960  70.6705300  29.9033380  80.3549510  69.5111760
  31.3827280  80.8717010  68.5072970  30.8562500  81.3959630  67.9038110
  31.7258620  81.5044400  69.1382700  23.7813670  78.2610380  54.9522680
  23.5802730  77.3977740  55.3136020  23.6105720  78.1743740  54.0144280
  25.8108150  76.8601170  71.1886280  26.4007840  76.5517020  71.8764100
  24.9928390  76.3880920  71.3446180  30.6301580  76.4766980  71.4219300
  29.9417100  75.8148520  71.3569290  31.3507600  76.0305250  71.8667760
  31.2601980  73.0718610  57.4809560  31.5404270  72.2286510  57.8368980
  30.4867710  73.3041720  57.9948310  22.5796470  75.3611000  54.9400560
  22.8822370  75.3678430  54.0319710  23.3191060  75.0108860  55.4368220
  25.7981400  74.3045620  55.9256760  25.4503400  73.6269610  55.3459210
  25.9994170  73.8435130  56.7400150  35.6382700  82.3095340  58.0913470
  36.4001610  82.8791990  58.1973160  35.6537070  81.7422540  58.8621780
  19.1387040  80.8333270  62.3221130  18.4835880  80.5644910  61.6780830
  19.9764990  80.7237750  61.8723110  36.6442670  83.1645440  62.9355400
  37.0151500  82.3812760  62.5291370  37.2844600  83.8534540  62.7572700
  35.6901870  82.6029710  55.2485990  35.9650710  83.5108590  55.1205210
  35.5012610  82.5392240  56.1847980  32.0877480  75.6274560  56.5439620
  32.5062360  75.4405540  55.7036280  31.7813540  74.7753610  56.8542550
  35.5867210  80.5398700  60.2415420  35.2110810  79.7726630  59.8096710
  34.8570330  80.9221400  60.7290350  20.1762970  81.2185840  66.8624470
  20.5436010  81.1313240  67.7420490  19.6073790  80.4552390  66.7631330
  34.9766830  79.6870220  69.8754940  34.7452920  79.4582970  68.9752890
  35.2371380  80.6069770  69.8299830  19.7278970  78.1294930  70.7682890
  18.8335020  78.0961690  71.1076600  20.2676520  78.3281720  71.5334140
  33.4154900  74.9126650  72.6534640  34.2925080  74.9210050  73.0368640
  33.4275740  74.1757490  72.0426990  18.3525120  78.0432200  58.2646460
  17.4489200  78.3062400  58.0898120  18.8365740  78.3143370  57.4846420
  34.8618170  78.7656190  63.5422660  35.3855650  78.2718840  62.9112830
  35.4477590  78.9006550  64.2870230  35.0407890  78.8496060  67.0642210
  34.0910600  78.8159600  67.1787200  35.2220900  79.7596170  66.8291980
  20.8952330  77.0997740  56.1740840  21.6044030  76.6780960  55.6888120
  20.1792270  77.1672970  55.5424190  20.5426490  73.1537070  55.2143490
  21.2654620  73.6946010  55.5324710  20.8151010  72.8800490  54.3385030
  34.3518140  78.0229540  59.4815070  34.8477260  77.7900410  60.2663950
  34.1534210  77.1841380  59.0652710  20.2318680  72.4043260  65.1166110
  20.8794870  71.8540640  64.6761270  20.6520520  72.6586410  65.9381920
  35.7805300  76.6590490  62.0152750  35.6704580  76.5046530  62.9535020
  36.5412890  76.1311430  61.7728160  34.1271020  72.5984620  68.4735750
  34.7643240  73.2118760  68.8394940  34.2745910  72.6345280  67.5284980
  36.6695570  74.4898410  55.2558890  37.5944880  74.3579590  55.0477180
  36.6471360  74.5691230  56.2095340  36.7434060  75.2609070  57.8815600
  35.9485560  75.1954190  58.4108510  36.9477340  76.1959710  57.8700950
  19.9850680  72.5598930  67.8591430  19.6365500  73.0162750  68.6249610
  19.6538380  71.6656060  67.9413860  27.4975500  73.7510810  71.3810850
  27.4364390  74.3432640  72.1306260  28.4375880  73.6436770  71.2361110
  30.1350060  73.4080870  71.0203140  30.7490470  73.7260160  70.3584220
  30.6799620  72.9229460  71.6399000  20.6571320  72.0875130  71.1342200
  21.2054310  71.9063180  70.3708310  20.7226630  71.2969240  71.6698510
  30.8758100  71.9713010  67.3472430  30.0017940  72.3048120  67.1445360
  30.7668850  71.4986190  68.1724300  31.7830080  74.1783880  68.7314150
  31.4543440  73.3635640  68.3515880  32.7312380  74.1353690  68.6079840
  28.6232920  72.8882850  66.2865340  27.8404710  73.3628350  66.5662100
  28.3295850  71.9837680  66.1778520  33.1753990  73.5905950  64.3314430
  33.6162080  73.5351050  63.4836030  32.9061580  74.5063960  64.4024610
  35.0392560  73.2221190  62.3423250  34.9780960  72.2782410  62.1954270
  35.8184590  73.3301280  62.8876710  19.9673330  73.1930330  58.8079060
  20.7252690  73.3059210  58.2343090  19.5050500  74.0299530  58.7622490
  26.5087140  75.3069600  61.7981370  25.6961650  74.9326490  61.4577250
  27.0128780  74.5514680  62.1002560  31.0112120  71.9712050  63.0364440
  31.6141490  72.5432260  63.5112960  30.2705110  72.5351490  62.8138340
  34.1546720  72.3733610  58.3104720  34.3497350  73.2717060  58.5772150
  33.3676590  72.1420690  58.8037670  22.3398480  73.7194380  57.3481030
  22.8691240  72.9324180  57.2188980  22.9726800  74.3985570  57.5816560
  24.5336320  73.4569520  60.4026420  23.9039060  72.7556830  60.5696550
  23.9941460  74.2173650  60.1859580  24.6591880  72.7353500  72.8378910
  24.3776150  73.2387100  72.0739730  25.0411580  71.9375250  72.4721040
  31.2607340  72.1507080  73.4159380  31.1472790  72.4701690  74.3110900
  32.0777080  72.5519590  73.1196660  30.1665490  80.1699550  43.7794120
  30.0859540  79.2554160  43.5085830  29.7529910  80.6666620  43.0733830
  28.2983530  81.9478570  45.6603390  27.5225630  81.4679010  45.9501960
  28.9496460  81.2684220  45.4859550  22.3149360  82.2598380  46.5379150
  21.4834240  82.0047090  46.9375660  22.9230340  82.3309150  47.2737070
  20.7241310  77.2200270  40.3221540  19.8358010  77.5616240  40.2201420
  21.0082500  77.0200590  39.4302370  18.6874320  79.8205920  46.2061240
  19.2590430  79.0528120  46.2064880  18.6875860  80.1194680  45.2967850
  27.7392520  84.6235760  45.6673550  27.6700800  83.6825700  45.5062680
  28.5012380  84.7137170  46.2396120  19.9299190  75.2290280  47.9930170
  19.7502030  74.3316030  48.2732930  19.5279270  75.7762150  48.6677120
  28.7697690  77.4306140  45.8942480  29.1462510  76.5578020  45.7816150
  28.6717200  77.7664840  45.0032920  22.9002700  75.8031770  41.3559920
  23.0069450  76.7035500  41.6628680  21.9895060  75.7549740  41.0654570
  32.5521810  74.9256580  42.8270820  33.3731430  74.4353150  42.8696300
  32.5855890  75.5154240  43.5802660  20.5485860  77.7250780  46.6012510
  21.2295970  77.9889150  47.2199910  20.2333910  76.8851650  46.9350520
  24.7410430  78.7718140  45.6885100  25.2488650  79.2699110  46.3290120
  25.2723670  77.9953340  45.5124460  36.8421360  76.9423330  49.3914450
  36.1373530  77.3305040  48.8729560  37.1079280  77.6373620  49.9935380
  23.0246530  73.4116700  49.9548520  23.0264970  73.9289090  49.1494420
  22.1950840  72.9346880  49.9318450  29.4117620  83.5236010  41.4538420
  28.7934890  83.9885460  40.8901140  29.9240870  84.2163490  41.8707930
  24.2749380  83.0511880  48.1322020  23.9418760  83.6780800  48.7743090
  24.4516060  83.5773760  47.3523690  32.7883290  76.8656960  45.5998360
  32.0838860  77.1541850  46.1801470  33.1495450  77.6757070  45.2397920
  22.7061860  75.1226660  47.9618970  23.0478670  75.9668710  47.6672840
  21.7677670  75.2710400  48.0784310  18.7800820  84.2092540  38.8278050
  18.4028800  84.6979640  38.0962950  19.0373890  84.8817820  39.4584580
  35.8570210  76.3111750  45.9907570  34.9095120  76.3450730  46.1223000
  36.1820200  77.1250700  46.3756930  26.3889750  72.6108930  44.2863560
  26.6964730  72.0555820  43.5699060  25.4590450  72.7453390  44.1036550
  31.3390250  83.2306060  47.9053630  31.7559040  83.0166170  47.0707090
  32.0630070  83.4878850  48.4762250  28.7770510  80.6757760  41.0223680
  27.8499790  80.6095140  41.2512150  28.9295330  81.6137890  40.9078920
  28.7639590  76.9474760  38.0190840  27.8243260  77.1088720  38.1043300
  29.0822850  77.6660440  37.4726830  35.2852350  81.6293280  47.9969870
  34.4570980  81.6986370  47.5220000  35.8802830  82.2147590  47.5285700
  32.8067800  82.2378060  41.5258930  32.1880220  81.8997610  40.8785230
  32.7892250  81.5937820  42.2338120  32.2494360  78.4162600  48.9424740
  31.8365540  79.2416310  49.1964730  31.5170310  77.8307640  48.7501100
  24.3827150  81.2022500  43.8043410  23.9784150  80.4899750  43.3089310
  24.4690270  80.8575740  44.6931450  24.8508850  84.8890060  45.9682620
  24.5537140  84.2835530  45.2890400  25.8008670  84.9267370  45.8571980
  23.0955770  77.9765710  47.5842450  23.6470360  78.0861050  46.8095700
  23.6099280  78.3503310  48.2997680  23.9427280  84.6271750  52.6190420
  23.0455810  84.8511720  52.8663820  23.9680150  84.7506690  51.6701820
  30.9832500  81.4764870  38.5331680  31.4225780  80.6387300  38.3869500
  31.6960920  82.1094270  38.6195820  22.7698500  81.4985070  51.1947790
  22.6306270  82.3707870  51.5635190  21.8879860  81.1557880  51.0495730
  34.5649640  72.7307680  36.8472720  34.2522300  72.8234510  37.7471790
  35.3262110  73.3088710  36.7970150  21.0831780  80.0967480  41.3050060
  20.9629380  80.8229570  40.6931330  20.7732670  79.3270390  40.8277970
  18.7217150  83.2682620  47.1118700  18.7997570  83.4031390  46.1674420
  19.3358830  82.5598510  47.3046820  35.7750930  77.4679180  52.8246860
  35.1595200  77.9758850  52.2962320  35.4547350  76.5677510  52.7672800
  18.7776670  84.3096790  49.6513160  18.9407710  83.8402150  48.8332530
  19.2429120  83.8020350  50.3162000  23.5495440  73.4402550  44.6873730
  23.1063590  74.2212090  44.3558250  24.1080430  73.7632440  45.3944670
  27.8365250  76.3071070  50.2909050  27.3744620  76.5154090  51.1028990
  27.4343360  75.4930420  49.9879720  32.8369760  77.5280020  51.4205710
  31.9863350  77.2285770  51.7414780  32.6771550  77.7722030  50.5089530
  29.9319470  79.0281770  53.5204500  30.2572880  78.1945520  53.1806730
  30.7199800  79.5510290  53.6682830  26.6654260  73.0613250  39.5679560
  26.0408440  73.0573120  40.2932870  26.5784380  72.1944210  39.1715530
  25.5871340  73.9849880  46.5463330  25.8843670  74.8912710  46.4655350
  26.1356900  73.4968660  45.9322900  23.3409660  78.5636120  42.4154980
  23.1150580  78.3473290  43.3201600  22.5602190  78.9964580  42.0700950
  30.5707420  78.5699490  41.0145630  29.9716310  79.2935290  40.8309250
  31.1187030  78.5076270  40.2322080  25.7808870  79.4621700  53.0815250
  25.6852470  78.5216430  52.9315650  26.6240850  79.6836770  52.6863320
  29.1772290  77.2063030  43.0448910  29.5701860  77.5235230  42.2317600
  29.5389140  76.3274910  43.1593430  20.9119410  75.8735370  51.2349030
  20.5182800  76.7210580  51.4421810  20.2237810  75.2361740  51.4257670
  27.4864460  75.9570340  54.3045770  26.7962780  75.7642540  54.9391860
  28.2296760  76.2404980  54.8370070  18.2136460  73.7963830  45.2679110
  17.9249510  74.3666690  45.9804090  18.9582220  73.3168280  45.6310340
  18.4006690  77.7383950  36.4781830  18.3181360  78.6814710  36.6196820
  18.0489750  77.5958860  35.5994180  29.7627430  79.7968780  47.1399690
  29.0308550  80.3055590  47.4889790  29.3651770  78.9798760  46.8388470
  26.2004820  76.4722980  45.5452180  26.2040880  76.0312930  44.6956720
  27.0955940  76.7940310  45.6524000  22.0507200  76.3549470  44.5046390
  21.7107250  76.8324700  45.2613440  21.2884520  75.9014590  44.1447490
  26.2624970  77.4735060  38.5358940  26.3837790  77.4321540  39.4844760
  25.8773480  78.3359210  38.3805670  30.2253340  75.2502460  46.5522630
  30.2426080  75.7011110  47.3964480  29.9768920  74.3508100  46.7656070
  25.2746470  79.7836200  37.9342240  24.7063370  79.3354450  37.3078150
  25.9835470  80.1428980  37.4007390  33.6524090  72.6634640  52.3909010
  33.9769860  71.9324300  52.9166990  33.6880600  72.3448280  51.4890000
  20.3515650  83.6848220  51.8108970  19.9670440  83.0441890  52.4091930
  20.6627840  84.3884340  52.3803700  26.5012790  80.5324760  47.2917590
  26.8682920  80.0583330  48.0378930  26.3117850  81.4066330  47.6325930
  19.3653280  75.2768450  43.4211060  19.0800200  74.9124120  44.2589680
  19.3032140  74.5448910  42.8074200  24.2912160  79.5733400  49.6101800
  23.9869230  80.4525380  49.8352160  25.2458620  79.6333190  49.6459240
  22.8193950  83.7794390  40.2068650  22.0456210  83.2392010  40.0467370
  23.5488580  83.2601000  39.8686410  33.5781930  82.7759750  45.9995040
  34.2981050  83.2715040  45.6091150  33.3763750  82.0977640  45.3548910
  29.0391870  74.1697710  40.1424430  28.2256480  73.6710880  40.0669740
  28.8453820  75.0095960  39.7260780  28.9600730  82.8468810  51.8864040
  28.8938040  81.9264480  51.6321630  28.3305870  82.9444250  52.6008680
  31.7540260  78.5417360  38.4386590  32.6419880  78.8534590  38.2637930
  31.7245350  77.6689610  38.0467170  22.8631350  83.4474770  43.8447460
  23.3810020  82.6443030  43.7904350  22.4115370  83.3853910  44.6864290
  20.3475890  80.4136140  50.7573160  19.9890830  81.0789990  51.3446500
  20.0530450  79.5819690  51.1285780  23.5489010  80.8720380  53.6412710
  23.2489150  81.0177560  52.7440530  24.3200250  80.3125670  53.5486100
  34.0254530  79.8529200  37.9066450  33.9418250  80.2843420  37.0562890
  34.7448720  80.3127550  38.3393270  35.1028670  82.3096720  50.9836420
  34.3776860  82.9025500  50.7865810  35.6304130  82.3020260  50.1849790
  30.6328260  84.0356890  44.4820270  30.9852080  83.4385020  43.8221640
  29.7490590  83.7101120  44.6528520  18.8583940  80.4127400  37.3807760
  19.7278790  80.6952200  37.6643680  18.3674260  81.2263270  37.2656570
  26.0218750  81.8000610  41.5016040  26.4781530  82.6105860  41.7276230
  25.6706960  81.4823750  42.3334530  21.9230530  72.1438260  41.9738560
  21.7945160  72.1356160  42.9223480  21.0992550  72.4821350  41.6229570
  18.9224460  73.9029380  51.4345260  18.2082980  74.1026300  52.0397870
  19.3419500  73.1268950  51.8060060  33.0255410  83.5159860  38.8339090
  32.7377110  83.9772550  39.6216970  33.8207580  83.0557630  39.1023310
  20.8430450  82.2300870  39.5089820  20.2358400  82.9699770  39.5185120
  21.3179800  82.3200230  38.6828020  30.4163240  76.3951690  49.1846710
  30.7844060  75.5746900  49.5126280  29.5561440  76.4553580  49.6002360
  33.7825270  75.3508630  39.9934270  33.1538430  75.4554300  39.2792500
  33.2877190  75.5705410  40.7828150  25.7509300  77.6294580  41.4092150
  25.0425450  78.0980920  41.8505760  26.0353780  76.9716590  42.0437340
  27.3765230  79.0491280  49.4084680  27.8750480  79.5237100  50.0736530
  27.5188180  78.1254800  49.6154710  29.7824730  74.3545240  42.8487940
  29.6592510  74.3731370  41.8997450  30.7309290  74.4024180  42.9686340
  23.9544320  75.9379660  38.7842860  24.8034850  76.3749810  38.7183050
  23.5875590  76.2499920  39.6114920  34.5832090  75.2659240  50.2513070
  34.0805690  76.0064640  50.5906880  35.3988750  75.6543240  49.9349860
  32.8754100  80.5092420  43.6974430  31.9344240  80.5242650  43.8722120
  33.1898170  79.7228380  44.1434730  22.8535740  82.1912020  37.2578390
  23.6199010  82.0793380  37.8203820  22.9310430  81.4949990  36.6055160
  21.5482500  79.6237090  37.9411280  21.6286090  78.6764600  38.0528680
  22.4402250  79.9543970  38.0471940  30.1920120  85.0658420  54.1806810
  29.5858280  85.0890020  53.4402560  29.8874230  84.3341460  54.7174060
  19.0753300  81.4452010  53.1767450  19.5792320  80.8659290  53.7483680
  18.3360720  81.7292240  53.7143820  25.9776920  84.1666200  36.7313740
  25.8727560  83.5518550  37.4575120  25.8101140  83.6432090  35.9476750
  26.1291240  82.8523000  52.7102970  25.3636910  83.4208000  52.6257640
  26.3107200  82.5599210  51.8171200  29.2179650  83.2286230  37.3355730
  28.6689750  83.6755530  37.9798470  29.8398910  82.7235480  37.8593400
  33.2714590  84.5828330  53.2677990  34.0124060  84.9204090  52.7645450
  32.5087270  84.7520390  52.7147760  21.1076380  79.5881600  54.0717520
  21.1481720  79.2895470  54.9802750  21.9621880  79.9889210  53.9125040
  24.8854770  82.1877150  39.2321030  25.3071190  82.0217020  40.0752420
  25.0105610  81.3777380  38.7376170  23.0482190  78.1673700  52.0392010
  22.5178650  77.6764650  51.4115350  23.7170260  78.5957900  51.5049940
  27.3982410  81.2114760  36.4798130  27.9188070  80.4963780  36.1139280
  28.0450810  81.8500630  36.7798640  31.9460250  82.6343160  51.8033200
  32.3601270  82.7888240  52.6523620  31.0111250  82.7598380  51.9658980
  32.4182420  79.9739320  53.8072350  33.0003190  79.2191640  53.7192830
  32.5944190  80.5046760  53.0303830  23.5354490  75.1336070  52.1189300
  23.4411360  74.5156820  51.3940170  22.9551880  75.8602360  51.8919210
  26.3015930  73.6909310  49.1516690  25.8533230  73.7133570  48.3062240
  25.6681130  73.2928330  49.7486990  26.7075480  82.5863640  49.7729130
  27.1263590  83.4296370  49.6005370  25.7884110  82.7235680  49.5435910
  29.0439380  80.3179820  51.1566970  29.1635590  79.7220960  51.8961810
  29.9033380  80.3549510  50.7368270  31.3827280  80.8717010  49.7329480
  30.8562500  81.3959630  49.1294620  31.7258620  81.5044400  50.3639210
  23.7813670  78.2610380  36.1779190  23.5802730  77.3977740  36.5392530
  23.6105720  78.1743740  35.2400790  25.8108150  76.8601170  52.4142790
  26.4007840  76.5517020  53.1020610  24.9928390  76.3880920  52.5702690
  30.6301580  76.4766980  52.6475810  29.9417100  75.8148520  52.5825800
  31.3507600  76.0305250  53.0924270  31.2601980  73.0718610  38.7066070
  31.5404270  72.2286510  39.0625490  30.4867710  73.3041720  39.2204820
  22.5796470  75.3611000  36.1657070  22.8822370  75.3678430  35.2576220
  23.3191060  75.0108860  36.6624730  25.7981400  74.3045620  37.1513270
  25.4503400  73.6269610  36.5715720  25.9994170  73.8435130  37.9656660
  35.6382700  82.3095340  39.3169980  36.4001610  82.8791990  39.4229670
  35.6537070  81.7422540  40.0878290  19.1387040  80.8333270  43.5477640
  18.4835880  80.5644910  42.9037340  19.9764990  80.7237750  43.0979620
  36.6442670  83.1645440  44.1611910  37.0151500  82.3812760  43.7547880
  37.2844600  83.8534540  43.9829210  35.6901870  82.6029710  36.4742500
  35.9650710  83.5108590  36.3461720  35.5012610  82.5392240  37.4104490
  32.0877480  75.6274560  37.7696130  32.5062360  75.4405540  36.9292790
  31.7813540  74.7753610  38.0799060  35.5867210  80.5398700  41.4671930
  35.2110810  79.7726630  41.0353220  34.8570330  80.9221400  41.9546860
  20.1762970  81.2185840  48.0880980  20.5436010  81.1313240  48.9677000
  19.6073790  80.4552390  47.9887840  34.9766830  79.6870220  51.1011450
  34.7452920  79.4582970  50.2009400  35.2371380  80.6069770  51.0556340
  19.7278970  78.1294930  51.9939400  18.8335020  78.0961690  52.3333110
  20.2676520  78.3281720  52.7590650  33.4154900  74.9126650  53.8791150
  34.2925080  74.9210050  54.2625150  33.4275740  74.1757490  53.2683500
  18.3525120  78.0432200  39.4902970  17.4489200  78.3062400  39.3154630
  18.8365740  78.3143370  38.7102930  34.8618170  78.7656190  44.7679170
  35.3855650  78.2718840  44.1369340  35.4477590  78.9006550  45.5126740
  35.0407890  78.8496060  48.2898720  34.0910600  78.8159600  48.4043710
  35.2220900  79.7596170  48.0548490  20.8952330  77.0997740  37.3997350
  21.6044030  76.6780960  36.9144630  20.1792270  77.1672970  36.7680700
  20.5426490  73.1537070  36.4400000  21.2654620  73.6946010  36.7581220
  20.8151010  72.8800490  35.5641540  34.3518140  78.0229540  40.7071580
  34.8477260  77.7900410  41.4920460  34.1534210  77.1841380  40.2909220
  20.2318680  72.4043260  46.3422620  20.8794870  71.8540640  45.9017780
  20.6520520  72.6586410  47.1638430  35.7805300  76.6590490  43.2409260
  35.6704580  76.5046530  44.1791530  36.5412890  76.1311430  42.9984670
  34.1271020  72.5984620  49.6992260  34.7643240  73.2118760  50.0651450
  34.2745910  72.6345280  48.7541490  36.6695570  74.4898410  36.4815400
  37.5944880  74.3579590  36.2733690  36.6471360  74.5691230  37.4351850
  36.7434060  75.2609070  39.1072110  35.9485560  75.1954190  39.6365020
  36.9477340  76.1959710  39.0957460  19.9850680  72.5598930  49.0847940
  19.6365500  73.0162750  49.8506120  19.6538380  71.6656060  49.1670370
  27.4975500  73.7510810  52.6067360  27.4364390  74.3432640  53.3562770
  28.4375880  73.6436770  52.4617620  30.1350060  73.4080870  52.2459650
  30.7490470  73.7260160  51.5840730  30.6799620  72.9229460  52.8655510
  20.6571320  72.0875130  52.3598710  21.2054310  71.9063180  51.5964820
  20.7226630  71.2969240  52.8955020  30.8758100  71.9713010  48.5728940
  30.0017940  72.3048120  48.3701870  30.7668850  71.4986190  49.3980810
  31.7830080  74.1783880  49.9570660  31.4543440  73.3635640  49.5772390
  32.7312380  74.1353690  49.8336350  28.6232920  72.8882850  47.5121850
  27.8404710  73.3628350  47.7918610  28.3295850  71.9837680  47.4035030
  33.1753990  73.5905950  45.5570940  33.6162080  73.5351050  44.7092540
  32.9061580  74.5063960  45.6281120  35.0392560  73.2221190  43.5679760
  34.9780960  72.2782410  43.4210780  35.8184590  73.3301280  44.1133220
  19.9673330  73.1930330  40.0335570  20.7252690  73.3059210  39.4599600
  19.5050500  74.0299530  39.9879000  26.5087140  75.3069600  43.0237880
  25.6961650  74.9326490  42.6833760  27.0128780  74.5514680  43.3259070
  31.0112120  71.9712050  44.2620950  31.6141490  72.5432260  44.7369470
  30.2705110  72.5351490  44.0394850  34.1546720  72.3733610  39.5361230
  34.3497350  73.2717060  39.8028660  33.3676590  72.1420690  40.0294180
  22.3398480  73.7194380  38.5737540  22.8691240  72.9324180  38.4445490
  22.9726800  74.3985570  38.8073070  24.5336320  73.4569520  41.6282930
  23.9039060  72.7556830  41.7953060  23.9941460  74.2173650  41.4116090
  24.6591880  72.7353500  54.0635420  24.3776150  73.2387100  53.2996240
  25.0411580  71.9375250  53.6977550  31.2607340  72.1507080  54.6415890
  31.1472790  72.4701690  55.5367410  32.0777080  72.5519590  54.3453170
  30.1665490  80.1699550  25.0050630  30.0859540  79.2554160  24.7342340
  29.7529910  80.6666620  24.2990340  28.2983530  81.9478570  26.8859900
  27.5225630  81.4679010  27.1758470  28.9496460  81.2684220  26.7116060
  22.3149360  82.2598380  27.7635660  21.4834240  82.0047090  28.1632170
  22.9230340  82.3309150  28.4993580  20.7241310  77.2200270  21.5478050
  19.8358010  77.5616240  21.4457930  21.0082500  77.0200590  20.6558880
  18.6874320  79.8205920  27.4317750  19.2590430  79.0528120  27.4321390
  18.6875860  80.1194680  26.5224360  27.7392520  84.6235760  26.8930060
  27.6700800  83.6825700  26.7319190  28.5012380  84.7137170  27.4652630
  19.9299190  75.2290280  29.2186680  19.7502030  74.3316030  29.4989440
  19.5279270  75.7762150  29.8933630  28.7697690  77.4306140  27.1198990
  29.1462510  76.5578020  27.0072660  28.6717200  77.7664840  26.2289430
  22.9002700  75.8031770  22.5816430  23.0069450  76.7035500  22.8885190
  21.9895060  75.7549740  22.2911080  32.5521810  74.9256580  24.0527330
  33.3731430  74.4353150  24.0952810  32.5855890  75.5154240  24.8059170
  20.5485860  77.7250780  27.8269020  21.2295970  77.9889150  28.4456420
  20.2333910  76.8851650  28.1607030  24.7410430  78.7718140  26.9141610
  25.2488650  79.2699110  27.5546630  25.2723670  77.9953340  26.7380970
  36.8421360  76.9423330  30.6170960  36.1373530  77.3305040  30.0986070
  37.1079280  77.6373620  31.2191890  23.0246530  73.4116700  31.1805030
  23.0264970  73.9289090  30.3750930  22.1950840  72.9346880  31.1574960
  29.4117620  83.5236010  22.6794930  28.7934890  83.9885460  22.1157650
  29.9240870  84.2163490  23.0964440  24.2749380  83.0511880  29.3578530
  23.9418760  83.6780800  29.9999600  24.4516060  83.5773760  28.5780200
  32.7883290  76.8656960  26.8254870  32.0838860  77.1541850  27.4057980
  33.1495450  77.6757070  26.4654430  22.7061860  75.1226660  29.1875480
  23.0478670  75.9668710  28.8929350  21.7677670  75.2710400  29.3040820
  18.7800820  84.2092540  20.0534560  18.4028800  84.6979640  19.3219460
  19.0373890  84.8817820  20.6841090  35.8570210  76.3111750  27.2164080
  34.9095120  76.3450730  27.3479510  36.1820200  77.1250700  27.6013440
  26.3889750  72.6108930  25.5120070  26.6964730  72.0555820  24.7955570
  25.4590450  72.7453390  25.3293060  31.3390250  83.2306060  29.1310140
  31.7559040  83.0166170  28.2963600  32.0630070  83.4878850  29.7018760
  28.7770510  80.6757760  22.2480190  27.8499790  80.6095140  22.4768660
  28.9295330  81.6137890  22.1335430  28.7639590  76.9474760  19.2447350
  27.8243260  77.1088720  19.3299810  29.0822850  77.6660440  18.6983340
  35.2852350  81.6293280  29.2226380  34.4570980  81.6986370  28.7476510
  35.8802830  82.2147590  28.7542210  32.8067800  82.2378060  22.7515440
  32.1880220  81.8997610  22.1041740  32.7892250  81.5937820  23.4594630
  32.2494360  78.4162600  30.1681250  31.8365540  79.2416310  30.4221240
  31.5170310  77.8307640  29.9757610  24.3827150  81.2022500  25.0299920
  23.9784150  80.4899750  24.5345820  24.4690270  80.8575740  25.9187960
  24.8508850  84.8890060  27.1939130  24.5537140  84.2835530  26.5146910
  25.8008670  84.9267370  27.0828490  23.0955770  77.9765710  28.8098960
  23.6470360  78.0861050  28.0352210  23.6099280  78.3503310  29.5254190
  23.9427280  84.6271750  33.8446930  23.0455810  84.8511720  34.0920330
  23.9680150  84.7506690  32.8958330  30.9832500  81.4764870  19.7588190
  31.4225780  80.6387300  19.6126010  31.6960920  82.1094270  19.8452330
  22.7698500  81.4985070  32.4204300  22.6306270  82.3707870  32.7891700
  21.8879860  81.1557880  32.2752240  34.5649640  72.7307680  18.0729230
  34.2522300  72.8234510  18.9728300  35.3262110  73.3088710  18.0226660
  21.0831780  80.0967480  22.5306570  20.9629380  80.8229570  21.9187840
  20.7732670  79.3270390  22.0534480  18.7217150  83.2682620  28.3375210
  18.7997570  83.4031390  27.3930930  19.3358830  82.5598510  28.5303330
  35.7750930  77.4679180  34.0503370  35.1595200  77.9758850  33.5218830
  35.4547350  76.5677510  33.9929310  18.7776670  84.3096790  30.8769670
  18.9407710  83.8402150  30.0589040  19.2429120  83.8020350  31.5418510
  23.5495440  73.4402550  25.9130240  23.1063590  74.2212090  25.5814760
  24.1080430  73.7632440  26.6201180  27.8365250  76.3071070  31.5165560
  27.3744620  76.5154090  32.3285500  27.4343360  75.4930420  31.2136230
  32.8369760  77.5280020  32.6462220  31.9863350  77.2285770  32.9671290
  32.6771550  77.7722030  31.7346040  29.9319470  79.0281770  34.7461010
  30.2572880  78.1945520  34.4063240  30.7199800  79.5510290  34.8939340
  26.6654260  73.0613250  20.7936070  26.0408440  73.0573120  21.5189380
  26.5784380  72.1944210  20.3972040  25.5871340  73.9849880  27.7719840
  25.8843670  74.8912710  27.6911860  26.1356900  73.4968660  27.1579410
  23.3409660  78.5636120  23.6411490  23.1150580  78.3473290  24.5458110
  22.5602190  78.9964580  23.2957460  30.5707420  78.5699490  22.2402140
  29.9716310  79.2935290  22.0565760  31.1187030  78.5076270  21.4578590
  25.7808870  79.4621700  34.3071760  25.6852470  78.5216430  34.1572160
  26.6240850  79.6836770  33.9119830  29.1772290  77.2063030  24.2705420
  29.5701860  77.5235230  23.4574110  29.5389140  76.3274910  24.3849940
  20.9119410  75.8735370  32.4605540  20.5182800  76.7210580  32.6678320
  20.2237810  75.2361740  32.6514180  27.4864460  75.9570340  35.5302280
  26.7962780  75.7642540  36.1648370  28.2296760  76.2404980  36.0626580
  18.2136460  73.7963830  26.4935620  17.9249510  74.3666690  27.2060600
  18.9582220  73.3168280  26.8566850  18.4006690  77.7383950  17.7038340
  18.3181360  78.6814710  17.8453330  18.0489750  77.5958860  16.8250690
  29.7627430  79.7968780  28.3656200  29.0308550  80.3055590  28.7146300
  29.3651770  78.9798760  28.0644980  26.2004820  76.4722980  26.7708690
  26.2040880  76.0312930  25.9213230  27.0955940  76.7940310  26.8780510
  22.0507200  76.3549470  25.7302900  21.7107250  76.8324700  26.4869950
  21.2884520  75.9014590  25.3704000  26.2624970  77.4735060  19.7615450
  26.3837790  77.4321540  20.7101270  25.8773480  78.3359210  19.6062180
  30.2253340  75.2502460  27.7779140  30.2426080  75.7011110  28.6220990
  29.9768920  74.3508100  27.9912580  25.2746470  79.7836200  19.1598750
  24.7063370  79.3354450  18.5334660  25.9835470  80.1428980  18.6263900
  33.6524090  72.6634640  33.6165520  33.9769860  71.9324300  34.1423500
  33.6880600  72.3448280  32.7146510  20.3515650  83.6848220  33.0365480
  19.9670440  83.0441890  33.6348440  20.6627840  84.3884340  33.6060210
  26.5012790  80.5324760  28.5174100  26.8682920  80.0583330  29.2635440
  26.3117850  81.4066330  28.8582440  19.3653280  75.2768450  24.6467570
  19.0800200  74.9124120  25.4846190  19.3032140  74.5448910  24.0330710
  24.2912160  79.5733400  30.8358310  23.9869230  80.4525380  31.0608670
  25.2458620  79.6333190  30.8715750  22.8193950  83.7794390  21.4325160
  22.0456210  83.2392010  21.2723880  23.5488580  83.2601000  21.0942920
  33.5781930  82.7759750  27.2251550  34.2981050  83.2715040  26.8347660
  33.3763750  82.0977640  26.5805420  29.0391870  74.1697710  21.3680940
  28.2256480  73.6710880  21.2926250  28.8453820  75.0095960  20.9517290
  28.9600730  82.8468810  33.1120550  28.8938040  81.9264480  32.8578140
  28.3305870  82.9444250  33.8265190  31.7540260  78.5417360  19.6643100
  32.6419880  78.8534590  19.4894440  31.7245350  77.6689610  19.2723680
  22.8631350  83.4474770  25.0703970  23.3810020  82.6443030  25.0160860
  22.4115370  83.3853910  25.9120800  20.3475890  80.4136140  31.9829670
  19.9890830  81.0789990  32.5703010  20.0530450  79.5819690  32.3542290
  23.5489010  80.8720380  34.8669220  23.2489150  81.0177560  33.9697040
  24.3200250  80.3125670  34.7742610  34.0254530  79.8529200  19.1322960
  33.9418250  80.2843420  18.2819400  34.7448720  80.3127550  19.5649780
  35.1028670  82.3096720  32.2092930  34.3776860  82.9025500  32.0122320
  35.6304130  82.3020260  31.4106300  30.6328260  84.0356890  25.7076780
  30.9852080  83.4385020  25.0478150  29.7490590  83.7101120  25.8785030
  18.8583940  80.4127400  18.6064270  19.7278790  80.6952200  18.8900190
  18.3674260  81.2263270  18.4913080  26.0218750  81.8000610  22.7272550
  26.4781530  82.6105860  22.9532740  25.6706960  81.4823750  23.5591040
  21.9230530  72.1438260  23.1995070  21.7945160  72.1356160  24.1479990
  21.0992550  72.4821350  22.8486080  18.9224460  73.9029380  32.6601770
  18.2082980  74.1026300  33.2654380  19.3419500  73.1268950  33.0316570
  33.0255410  83.5159860  20.0595600  32.7377110  83.9772550  20.8473480
  33.8207580  83.0557630  20.3279820  20.8430450  82.2300870  20.7346330
  20.2358400  82.9699770  20.7441630  21.3179800  82.3200230  19.9084530
  30.4163240  76.3951690  30.4103220  30.7844060  75.5746900  30.7382790
  29.5561440  76.4553580  30.8258870  33.7825270  75.3508630  21.2190780
  33.1538430  75.4554300  20.5049010  33.2877190  75.5705410  22.0084660
  25.7509300  77.6294580  22.6348660  25.0425450  78.0980920  23.0762270
  26.0353780  76.9716590  23.2693850  27.3765230  79.0491280  30.6341190
  27.8750480  79.5237100  31.2993040  27.5188180  78.1254800  30.8411220
  29.7824730  74.3545240  24.0744450  29.6592510  74.3731370  23.1253960
  30.7309290  74.4024180  24.1942850  23.9544320  75.9379660  20.0099370
  24.8034850  76.3749810  19.9439560  23.5875590  76.2499920  20.8371430
  34.5832090  75.2659240  31.4769580  34.0805690  76.0064640  31.8163390
  35.3988750  75.6543240  31.1606370  32.8754100  80.5092420  24.9230940
  31.9344240  80.5242650  25.0978630  33.1898170  79.7228380  25.3691240
  22.8535740  82.1912020  18.4834900  23.6199010  82.0793380  19.0460330
  22.9310430  81.4949990  17.8311670  21.5482500  79.6237090  19.1667790
  21.6286090  78.6764600  19.2785190  22.4402250  79.9543970  19.2728450
  30.1920120  85.0658420  35.4063320  29.5858280  85.0890020  34.6659070
  29.8874230  84.3341460  35.9430570  19.0753300  81.4452010  34.4023960
  19.5792320  80.8659290  34.9740190  18.3360720  81.7292240  34.9400330
  25.9776920  84.1666200  17.9570250  25.8727560  83.5518550  18.6831630
  25.8101140  83.6432090  17.1733260  26.1291240  82.8523000  33.9359480
  25.3636910  83.4208000  33.8514150  26.3107200  82.5599210  33.0427710
  29.2179650  83.2286230  18.5612240  28.6689750  83.6755530  19.2054980
  29.8398910  82.7235480  19.0849910  33.2714590  84.5828330  34.4934500
  34.0124060  84.9204090  33.9901960  32.5087270  84.7520390  33.9404270
  21.1076380  79.5881600  35.2974030  21.1481720  79.2895470  36.2059260
  21.9621880  79.9889210  35.1381550  24.8854770  82.1877150  20.4577540
  25.3071190  82.0217020  21.3008930  25.0105610  81.3777380  19.9632680
  23.0482190  78.1673700  33.2648520  22.5178650  77.6764650  32.6371860
  23.7170260  78.5957900  32.7306450  27.3982410  81.2114760  17.7054640
  27.9188070  80.4963780  17.3395790  28.0450810  81.8500630  18.0055150
  31.9460250  82.6343160  33.0289710  32.3601270  82.7888240  33.8780130
  31.0111250  82.7598380  33.1915490  32.4182420  79.9739320  35.0328860
  33.0003190  79.2191640  34.9449340  32.5944190  80.5046760  34.2560340
  23.5354490  75.1336070  33.3445810  23.4411360  74.5156820  32.6196680
  22.9551880  75.8602360  33.1175720  26.3015930  73.6909310  30.3773200
  25.8533230  73.7133570  29.5318750  25.6681130  73.2928330  30.9743500
  26.7075480  82.5863640  30.9985640  27.1263590  83.4296370  30.8261880
  25.7884110  82.7235680  30.7692420  29.0439380  80.3179820  32.3823480
  29.1635590  79.7220960  33.1218320  29.9033380  80.3549510  31.9624780
  31.3827280  80.8717010  30.9585990  30.8562500  81.3959630  30.3551130
  31.7258620  81.5044400  31.5895720  23.7813670  78.2610380  17.4035700
  23.5802730  77.3977740  17.7649040  23.6105720  78.1743740  16.4657300
  25.8108150  76.8601170  33.6399300  26.4007840  76.5517020  34.3277120
  24.9928390  76.3880920  33.7959200  30.6301580  76.4766980  33.8732320
  29.9417100  75.8148520  33.8082310  31.3507600  76.0305250  34.3180780
  31.2601980  73.0718610  19.9322580  31.5404270  72.2286510  20.2882000
  30.4867710  73.3041720  20.4461330  22.5796470  75.3611000  17.3913580
  22.8822370  75.3678430  16.4832730  23.3191060  75.0108860  17.8881240
  25.7981400  74.3045620  18.3769780  25.4503400  73.6269610  17.7972230
  25.9994170  73.8435130  19.1913170  35.6382700  82.3095340  20.5426490
  36.4001610  82.8791990  20.6486180  35.6537070  81.7422540  21.3134800
  19.1387040  80.8333270  24.7734150  18.4835880  80.5644910  24.1293850
  19.9764990  80.7237750  24.3236130  36.6442670  83.1645440  25.3868420
  37.0151500  82.3812760  24.9804390  37.2844600  83.8534540  25.2085720
  35.6901870  82.6029710  17.6999010  35.9650710  83.5108590  17.5718230
  35.5012610  82.5392240  18.6361000  32.0877480  75.6274560  18.9952640
  32.5062360  75.4405540  18.1549300  31.7813540  74.7753610  19.3055570
  35.5867210  80.5398700  22.6928440  35.2110810  79.7726630  22.2609730
  34.8570330  80.9221400  23.1803370  20.1762970  81.2185840  29.3137490
  20.5436010  81.1313240  30.1933510  19.6073790  80.4552390  29.2144350
  34.9766830  79.6870220  32.3267960  34.7452920  79.4582970  31.4265910
  35.2371380  80.6069770  32.2812850  19.7278970  78.1294930  33.2195910
  18.8335020  78.0961690  33.5589620  20.2676520  78.3281720  33.9847160
  33.4154900  74.9126650  35.1047660  34.2925080  74.9210050  35.4881660
  33.4275740  74.1757490  34.4940010  18.3525120  78.0432200  20.7159480
  17.4489200  78.3062400  20.5411140  18.8365740  78.3143370  19.9359440
  34.8618170  78.7656190  25.9935680  35.3855650  78.2718840  25.3625850
  35.4477590  78.9006550  26.7383250  35.0407890  78.8496060  29.5155230
  34.0910600  78.8159600  29.6300220  35.2220900  79.7596170  29.2805000
  20.8952330  77.0997740  18.6253860  21.6044030  76.6780960  18.1401140
  20.1792270  77.1672970  17.9937210  20.5426490  73.1537070  17.6656510
  21.2654620  73.6946010  17.9837730  20.8151010  72.8800490  16.7898050
  34.3518140  78.0229540  21.9328090  34.8477260  77.7900410  22.7176970
  34.1534210  77.1841380  21.5165730  20.2318680  72.4043260  27.5679130
  20.8794870  71.8540640  27.1274290  20.6520520  72.6586410  28.3894940
  35.7805300  76.6590490  24.4665770  35.6704580  76.5046530  25.4048040
  36.5412890  76.1311430  24.2241180  34.1271020  72.5984620  30.9248770
  34.7643240  73.2118760  31.2907960  34.2745910  72.6345280  29.9798000
  36.6695570  74.4898410  17.7071910  37.5944880  74.3579590  17.4990200
  36.6471360  74.5691230  18.6608360  36.7434060  75.2609070  20.3328620
  35.9485560  75.1954190  20.8621530  36.9477340  76.1959710  20.3213970
  19.9850680  72.5598930  30.3104450  19.6365500  73.0162750  31.0762630
  19.6538380  71.6656060  30.3926880  27.4975500  73.7510810  33.8323870
  27.4364390  74.3432640  34.5819280  28.4375880  73.6436770  33.6874130
  30.1350060  73.4080870  33.4716160  30.7490470  73.7260160  32.8097240
  30.6799620  72.9229460  34.0912020  20.6571320  72.0875130  33.5855220
  21.2054310  71.9063180  32.8221330  20.7226630  71.2969240  34.1211530
  30.8758100  71.9713010  29.7985450  30.0017940  72.3048120  29.5958380
  30.7668850  71.4986190  30.6237320  31.7830080  74.1783880  31.1827170
  31.4543440  73.3635640  30.8028900  32.7312380  74.1353690  31.0592860
  28.6232920  72.8882850  28.7378360  27.8404710  73.3628350  29.0175120
  28.3295850  71.9837680  28.6291540  33.1753990  73.5905950  26.7827450
  33.6162080  73.5351050  25.9349050  32.9061580  74.5063960  26.8537630
  35.0392560  73.2221190  24.7936270  34.9780960  72.2782410  24.6467290
  35.8184590  73.3301280  25.3389730  19.9673330  73.1930330  21.2592080
  20.7252690  73.3059210  20.6856110  19.5050500  74.0299530  21.2135510
  26.5087140  75.3069600  24.2494390  25.6961650  74.9326490  23.9090270
  27.0128780  74.5514680  24.5515580  31.0112120  71.9712050  25.4877460
  31.6141490  72.5432260  25.9625980  30.2705110  72.5351490  25.2651360
  34.1546720  72.3733610  20.7617740  34.3497350  73.2717060  21.0285170
  33.3676590  72.1420690  21.2550690  22.3398480  73.7194380  19.7994050
  22.8691240  72.9324180  19.6702000  22.9726800  74.3985570  20.0329580
  24.5336320  73.4569520  22.8539440  23.9039060  72.7556830  23.0209570
  23.9941460  74.2173650  22.6372600  24.6591880  72.7353500  35.2891930
  24.3776150  73.2387100  34.5252750  25.0411580  71.9375250  34.9234060
  31.2607340  72.1507080  35.8672400  31.1472790  72.4701690  36.7623920
  32.0777080  72.5519590  35.5709680  30.1665490  80.1699550   6.2307140
  30.0859540  79.2554160   5.9598850  29.7529910  80.6666620   5.5246850
  28.2983530  81.9478570   8.1116410  27.5225630  81.4679010   8.4014980
  28.9496460  81.2684220   7.9372570  22.3149360  82.2598380   8.9892170
  21.4834240  82.0047090   9.3888680  22.9230340  82.3309150   9.7250090
  20.7241310  77.2200270   2.7734560  19.8358010  77.5616240   2.6714440
  21.0082500  77.0200590   1.8815390  18.6874320  79.8205920   8.6574260
  19.2590430  79.0528120   8.6577900  18.6875860  80.1194680   7.7480870
  27.7392520  84.6235760   8.1186570  27.6700800  83.6825700   7.9575700
  28.5012380  84.7137170   8.6909140  19.9299190  75.2290280  10.4443190
  19.7502030  74.3316030  10.7245950  19.5279270  75.7762150  11.1190140
  28.7697690  77.4306140   8.3455500  29.1462510  76.5578020   8.2329170
  28.6717200  77.7664840   7.4545940  22.9002700  75.8031770   3.8072940
  23.0069450  76.7035500   4.1141700  21.9895060  75.7549740   3.5167590
  32.5521810  74.9256580   5.2783840  33.3731430  74.4353150   5.3209320
  32.5855890  75.5154240   6.0315680  20.5485860  77.7250780   9.0525530
  21.2295970  77.9889150   9.6712930  20.2333910  76.8851650   9.3863540
  24.7410430  78.7718140   8.1398120  25.2488650  79.2699110   8.7803140
  25.2723670  77.9953340   7.9637480  36.8421360  76.9423330  11.8427470
  36.1373530  77.3305040  11.3242580  37.1079280  77.6373620  12.4448400
  23.0246530  73.4116700  12.4061540  23.0264970  73.9289090  11.6007440
  22.1950840  72.9346880  12.3831470  29.4117620  83.5236010   3.9051440
  28.7934890  83.9885460   3.3414160  29.9240870  84.2163490   4.3220950
  24.2749380  83.0511880  10.5835040  23.9418760  83.6780800  11.2256110
  24.4516060  83.5773760   9.8036710  32.7883290  76.8656960   8.0511380
  32.0838860  77.1541850   8.6314490  33.1495450  77.6757070   7.6910940
  22.7061860  75.1226660  10.4131990  23.0478670  75.9668710  10.1185860
  21.7677670  75.2710400  10.5297330  35.8570210  76.3111750   8.4420590
  34.9095120  76.3450730   8.5736020  36.1820200  77.1250700   8.8269950
  26.3889750  72.6108930   6.7376580  26.6964730  72.0555820   6.0212080
  25.4590450  72.7453390   6.5549570  31.3390250  83.2306060  10.3566650
  31.7559040  83.0166170   9.5220110  32.0630070  83.4878850  10.9275270
  28.7770510  80.6757760   3.4736700  27.8499790  80.6095140   3.7025170
  28.9295330  81.6137890   3.3591940  35.2852350  81.6293280  10.4482890
  34.4570980  81.6986370   9.9733020  35.8802830  82.2147590   9.9798720
  32.8067800  82.2378060   3.9771950  32.1880220  81.8997610   3.3298250
  32.7892250  81.5937820   4.6851140  32.2494360  78.4162600  11.3937760
  31.8365540  79.2416310  11.6477750  31.5170310  77.8307640  11.2014120
  24.3827150  81.2022500   6.2556430  23.9784150  80.4899750   5.7602330
  24.4690270  80.8575740   7.1444470  24.8508850  84.8890060   8.4195640
  24.5537140  84.2835530   7.7403420  25.8008670  84.9267370   8.3085000
  23.0955770  77.9765710  10.0355470  23.6470360  78.0861050   9.2608720
  23.6099280  78.3503310  10.7510700  23.9427280  84.6271750  15.0703440
  23.0455810  84.8511720  15.3176840  23.9680150  84.7506690  14.1214840
  22.7698500  81.4985070  13.6460810  22.6306270  82.3707870  14.0148210
  21.8879860  81.1557880  13.5008750  21.0831780  80.0967480   3.7563080
  20.9629380  80.8229570   3.1444350  20.7732670  79.3270390   3.2790990
  18.7217150  83.2682620   9.5631720  18.7997570  83.4031390   8.6187440
  19.3358830  82.5598510   9.7559840  35.7750930  77.4679180  15.2759880
  35.1595200  77.9758850  14.7475340  35.4547350  76.5677510  15.2185820
  18.7776670  84.3096790  12.1026180  18.9407710  83.8402150  11.2845550
  19.2429120  83.8020350  12.7675020  23.5495440  73.4402550   7.1386750
  23.1063590  74.2212090   6.8071270  24.1080430  73.7632440   7.8457690
  27.8365250  76.3071070  12.7422070  27.3744620  76.5154090  13.5542010
  27.4343360  75.4930420  12.4392740  32.8369760  77.5280020  13.8718730
  31.9863350  77.2285770  14.1927800  32.6771550  77.7722030  12.9602550
  29.9319470  79.0281770  15.9717520  30.2572880  78.1945520  15.6319750
  30.7199800  79.5510290  16.1195850  25.5871340  73.9849880   8.9976350
  25.8843670  74.8912710   8.9168370  26.1356900  73.4968660   8.3835920
  23.3409660  78.5636120   4.8668000  23.1150580  78.3473290   5.7714620
  22.5602190  78.9964580   4.5213970  30.5707420  78.5699490   3.4658650
  29.9716310  79.2935290   3.2822270  31.1187030  78.5076270   2.6835100
  25.7808870  79.4621700  15.5328270  25.6852470  78.5216430  15.3828670
  26.6240850  79.6836770  15.1376340  29.1772290  77.2063030   5.4961930
  29.5701860  77.5235230   4.6830620  29.5389140  76.3274910   5.6106450
  20.9119410  75.8735370  13.6862050  20.5182800  76.7210580  13.8934830
  20.2237810  75.2361740  13.8770690  27.4864460  75.9570340  16.7558790
  26.7962780  75.7642540  17.3904880  28.2296760  76.2404980  17.2883090
  18.2136460  73.7963830   7.7192130  17.9249510  74.3666690   8.4317110
  18.9582220  73.3168280   8.0823360  29.7627430  79.7968780   9.5912710
  29.0308550  80.3055590   9.9402810  29.3651770  78.9798760   9.2901490
  26.2004820  76.4722980   7.9965200  26.2040880  76.0312930   7.1469740
  27.0955940  76.7940310   8.1037020  22.0507200  76.3549470   6.9559410
  21.7107250  76.8324700   7.7126460  21.2884520  75.9014590   6.5960510
  30.2253340  75.2502460   9.0035650  30.2426080  75.7011110   9.8477500
  29.9768920  74.3508100   9.2169090  33.6524090  72.6634640  14.8422030
  33.9769860  71.9324300  15.3680010  33.6880600  72.3448280  13.9403020
  20.3515650  83.6848220  14.2621990  19.9670440  83.0441890  14.8604950
  20.6627840  84.3884340  14.8316720  26.5012790  80.5324760   9.7430610
  26.8682920  80.0583330  10.4891950  26.3117850  81.4066330  10.0838950
  19.3653280  75.2768450   5.8724080  19.0800200  74.9124120   6.7102700
  19.3032140  74.5448910   5.2587220  24.2912160  79.5733400  12.0614820
  23.9869230  80.4525380  12.2865180  25.2458620  79.6333190  12.0972260
  22.8193950  83.7794390   2.6581670  22.0456210  83.2392010   2.4980390
  23.5488580  83.2601000   2.3199430  33.5781930  82.7759750   8.4508060
  34.2981050  83.2715040   8.0604170  33.3763750  82.0977640   7.8061930
  29.0391870  74.1697710   2.5937450  28.2256480  73.6710880   2.5182760
  28.8453820  75.0095960   2.1773800  28.9600730  82.8468810  14.3377060
  28.8938040  81.9264480  14.0834650  28.3305870  82.9444250  15.0521700
  22.8631350  83.4474770   6.2960480  23.3810020  82.6443030   6.2417370
  22.4115370  83.3853910   7.1377310  20.3475890  80.4136140  13.2086180
  19.9890830  81.0789990  13.7959520  20.0530450  79.5819690  13.5798800
  23.5489010  80.8720380  16.0925730  23.2489150  81.0177560  15.1953550
  24.3200250  80.3125670  15.9999120  35.1028670  82.3096720  13.4349440
  34.3776860  82.9025500  13.2378830  35.6304130  82.3020260  12.6362810
  30.6328260  84.0356890   6.9333290  30.9852080  83.4385020   6.2734660
  29.7490590  83.7101120   7.1041540  26.0218750  81.8000610   3.9529060
  26.4781530  82.6105860   4.1789250  25.6706960  81.4823750   4.7847550
  21.9230530  72.1438260   4.4251580  21.7945160  72.1356160   5.3736500
  21.0992550  72.4821350   4.0742590  18.9224460  73.9029380  13.8858280
  18.2082980  74.1026300  14.4910890  19.3419500  73.1268950  14.2573080
  30.4163240  76.3951690  11.6359730  30.7844060  75.5746900  11.9639300
  29.5561440  76.4553580  12.0515380  33.7825270  75.3508630   2.4447290
  33.1538430  75.4554300   1.7305520  33.2877190  75.5705410   3.2341170
  25.7509300  77.6294580   3.8605170  25.0425450  78.0980920   4.3018780
  26.0353780  76.9716590   4.4950360  27.3765230  79.0491280  11.8597700
  27.8750480  79.5237100  12.5249550  27.5188180  78.1254800  12.0667730
  29.7824730  74.3545240   5.3000960  29.6592510  74.3731370   4.3510470
  30.7309290  74.4024180   5.4199360  34.5832090  75.2659240  12.7026090
  34.0805690  76.0064640  13.0419900  35.3988750  75.6543240  12.3862880
  32.8754100  80.5092420   6.1487450  31.9344240  80.5242650   6.3235140
  33.1898170  79.7228380   6.5947750  30.1920120  85.0658420  16.6319830
  29.5858280  85.0890020  15.8915580  29.8874230  84.3341460  17.1687080
  19.0753300  81.4452010  15.6280470  19.5792320  80.8659290  16.1996700
  18.3360720  81.7292240  16.1656840  26.1291240  82.8523000  15.1615990
  25.3636910  83.4208000  15.0770660  26.3107200  82.5599210  14.2684220
  33.2714590  84.5828330  15.7191010  34.0124060  84.9204090  15.2158470
  32.5087270  84.7520390  15.1660780  21.1076380  79.5881600  16.5230540
  21.1481720  79.2895470  17.4315770  21.9621880  79.9889210  16.3638060
  23.0482190  78.1673700  14.4905030  22.5178650  77.6764650  13.8628370
  23.7170260  78.5957900  13.9562960  31.9460250  82.6343160  14.2546220
  32.3601270  82.7888240  15.1036640  31.0111250  82.7598380  14.4172000
  32.4182420  79.9739320  16.2585370  33.0003190  79.2191640  16.1705850
  32.5944190  80.5046760  15.4816850  23.5354490  75.1336070  14.5702320
  23.4411360  74.5156820  13.8453190  22.9551880  75.8602360  14.3432230
  26.3015930  73.6909310  11.6029710  25.8533230  73.7133570  10.7575260
  25.6681130  73.2928330  12.2000010  26.7075480  82.5863640  12.2242150
  27.1263590  83.4296370  12.0518390  25.7884110  82.7235680  11.9948930
  29.0439380  80.3179820  13.6079990  29.1635590  79.7220960  14.3474830
  29.9033380  80.3549510  13.1881290  31.3827280  80.8717010  12.1842500
  30.8562500  81.3959630  11.5807640  31.7258620  81.5044400  12.8152230
  25.8108150  76.8601170  14.8655810  26.4007840  76.5517020  15.5533630
  24.9928390  76.3880920  15.0215710  30.6301580  76.4766980  15.0988830
  29.9417100  75.8148520  15.0338820  31.3507600  76.0305250  15.5437290
  35.6382700  82.3095340   1.7683000  36.4001610  82.8791990   1.8742690
  35.6537070  81.7422540   2.5391310  19.1387040  80.8333270   5.9990660
  18.4835880  80.5644910   5.3550360  19.9764990  80.7237750   5.5492640
  36.6442670  83.1645440   6.6124930  37.0151500  82.3812760   6.2060900
  37.2844600  83.8534540   6.4342230  35.5867210  80.5398700   3.9184950
  35.2110810  79.7726630   3.4866240  34.8570330  80.9221400   4.4059880
  20.1762970  81.2185840  10.5394000  20.5436010  81.1313240  11.4190020
  19.6073790  80.4552390  10.4400860  34.9766830  79.6870220  13.5524470
  34.7452920  79.4582970  12.6522420  35.2371380  80.6069770  13.5069360
  19.7278970  78.1294930  14.4452420  18.8335020  78.0961690  14.7846130
  20.2676520  78.3281720  15.2103670  33.4154900  74.9126650  16.3304170
  34.2925080  74.9210050  16.7138170  33.4275740  74.1757490  15.7196520
  34.8618170  78.7656190   7.2192190  35.3855650  78.2718840   6.5882360
  35.4477590  78.9006550   7.9639760  35.0407890  78.8496060  10.7411740
  34.0910600  78.8159600  10.8556730  35.2220900  79.7596170  10.5061510
  34.3518140  78.0229540   3.1584600  34.8477260  77.7900410   3.9433480
  34.1534210  77.1841380   2.7422240  20.2318680  72.4043260   8.7935640
  20.8794870  71.8540640   8.3530800  20.6520520  72.6586410   9.6151450
  35.7805300  76.6590490   5.6922280  35.6704580  76.5046530   6.6304550
  36.5412890  76.1311430   5.4497690  34.1271020  72.5984620  12.1505280
  34.7643240  73.2118760  12.5164470  34.2745910  72.6345280  11.2054510
  19.9850680  72.5598930  11.5360960  19.6365500  73.0162750  12.3019140
  19.6538380  71.6656060  11.6183390  27.4975500  73.7510810  15.0580380
  27.4364390  74.3432640  15.8075790  28.4375880  73.6436770  14.9130640
  30.1350060  73.4080870  14.6972670  30.7490470  73.7260160  14.0353750
  30.6799620  72.9229460  15.3168530  20.6571320  72.0875130  14.8111730
  21.2054310  71.9063180  14.0477840  20.7226630  71.2969240  15.3468040
  30.8758100  71.9713010  11.0241960  30.0017940  72.3048120  10.8214890
  30.7668850  71.4986190  11.8493830  31.7830080  74.1783880  12.4083680
  31.4543440  73.3635640  12.0285410  32.7312380  74.1353690  12.2849370
  28.6232920  72.8882850   9.9634870  27.8404710  73.3628350  10.2431630
  28.3295850  71.9837680   9.8548050  33.1753990  73.5905950   8.0083960
  33.6162080  73.5351050   7.1605560  32.9061580  74.5063960   8.0794140
  35.0392560  73.2221190   6.0192780  34.9780960  72.2782410   5.8723800
  35.8184590  73.3301280   6.5646240  19.9673330  73.1930330   2.4848590
  20.7252690  73.3059210   1.9112620  19.5050500  74.0299530   2.4392020
  26.5087140  75.3069600   5.4750900  25.6961650  74.9326490   5.1346780
  27.0128780  74.5514680   5.7772090  31.0112120  71.9712050   6.7133970
  31.6141490  72.5432260   7.1882490  30.2705110  72.5351490   6.4907870
  34.1546720  72.3733610   1.9874250  34.3497350  73.2717060   2.2541680
  33.3676590  72.1420690   2.4807200  24.5336320  73.4569520   4.0795950
  23.9039060  72.7556830   4.2466080  23.9941460  74.2173650   3.8629110
  24.6591880  72.7353500  16.5148440  24.3776150  73.2387100  15.7509260
  25.0411580  71.9375250  16.1490570  31.2607340  72.1507080  17.0928910
  31.1472790  72.4701690  17.9880430  32.0777080  72.5519590  16.7966190
  30.1665490  61.3956060  81.3281100  30.0859540  60.4810670  81.0572810
  29.7529910  61.8923130  80.6220810  28.2983530  63.1735080  83.2090370
  27.5225630  62.6935520  83.4988940  28.9496460  62.4940730  83.0346530
  22.3149360  63.4854890  84.0866130  21.4834240  63.2303600  84.4862640
  22.9230340  63.5565660  84.8224050  32.3190960  67.5795270  81.9889500
  31.8572490  66.8082510  82.3176670  33.1316510  67.6061340  82.4941950
  22.2950620  67.5194980  84.2824150  22.5978660  66.6292720  84.1034370
  23.0394210  68.0765200  84.0546400  20.7241310  58.4456780  77.8708520
  19.8358010  58.7872750  77.7688400  21.0082500  58.2457100  76.9789350
  18.6874320  61.0462430  83.7548220  19.2590430  60.2784630  83.7551860
  18.6875860  61.3451190  82.8454830  28.5454270  69.8653280  81.6093490
  27.9265710  70.3210780  81.0387930  29.4006050  70.0204740  81.2083190
  27.7392520  65.8492270  83.2160530  27.6700800  64.9082210  83.0549660
  28.5012380  65.9393680  83.7883100  19.9299190  56.4546790  85.5417150
  19.7502030  55.5572540  85.8219910  19.5279270  57.0018660  86.2164100
  28.7697690  58.6562650  83.4429460  29.1462510  57.7834530  83.3303130
  28.6717200  58.9921350  82.5519900  22.9002700  57.0288280  78.9046900
  23.0069450  57.9292010  79.2115660  21.9895060  56.9806250  78.6141550
  32.5521810  56.1513090  80.3757800  33.3731430  55.6609660  80.4183280
  32.5855890  56.7410750  81.1289640  20.5485860  58.9507290  84.1499490
  21.2295970  59.2145660  84.7686890  20.2333910  58.1108160  84.4837500
  24.7410430  59.9974650  83.2372080  25.2488650  60.4955620  83.8777100
  25.2723670  59.2209850  83.0611440  36.8421360  58.1679840  86.9401430
  36.1373530  58.5561550  86.4216540  37.1079280  58.8630130  87.5422360
  23.0246530  54.6373210  87.5035500  23.0264970  55.1545600  86.6981400
  22.1950840  54.1603390  87.4805430  29.4117620  64.7492520  79.0025400
  28.7934890  65.2141970  78.4388120  29.9240870  65.4420000  79.4194910
  24.2749380  64.2768390  85.6809000  23.9418760  64.9037310  86.3230070
  24.4516060  64.8030270  84.9010670  32.7883290  58.0913470  83.1485340
  32.0838860  58.3798360  83.7288450  33.1495450  58.9013580  82.7884900
  22.7061860  56.3483170  85.5105950  23.0478670  57.1925220  85.2159820
  21.7677670  56.4966910  85.6271290  23.4868480  66.2449190  87.4958180
  24.1042480  66.9200270  87.2142630  22.6261600  66.6537170  87.4045680
  18.7800820  65.4349050  76.3765030  18.4028800  65.9236150  75.6449930
  19.0373890  66.1074330  77.0071560  34.4046070  67.7088600  85.4112820
  33.7209590  68.3787710  85.4029490  34.9440360  67.9069250  84.6457680
  35.8570210  57.5368260  83.5394550  34.9095120  57.5707240  83.6709980
  36.1820200  58.3507210  83.9243910  26.3889750  53.8365440  81.8350540
  26.6964730  53.2812330  81.1186040  25.4590450  53.9709900  81.6523530
  31.9404810  69.5532730  84.1258000  31.9531970  69.1495020  83.2580260
  31.3880030  70.3280020  84.0219430  33.2350230  66.2748950  79.2148170
  33.1246560  65.3323280  79.3397590  33.2318480  66.6364590  80.1010930
  31.3390250  64.4562570  85.4540610  31.7559040  64.2422680  84.6194070
  32.0630070  64.7135360  86.0249230  28.7770510  61.9014270  78.5710660
  27.8499790  61.8351650  78.7999130  28.9295330  62.8394400  78.4565900
  28.7639590  58.1731270  75.5677820  27.8243260  58.3345230  75.6530280
  29.0822850  58.8916950  75.0213810  35.2852350  62.8549790  85.5456850
  34.4570980  62.9242880  85.0706980  35.8802830  63.4404100  85.0772680
  32.8067800  63.4634570  79.0745910  32.1880220  63.1254120  78.4272210
  32.7892250  62.8194330  79.7825100  32.2494360  59.6419110  86.4911720
  31.8365540  60.4672820  86.7451710  31.5170310  59.0564150  86.2988080
  24.3827150  62.4279010  81.3530390  23.9784150  61.7156260  80.8576290
  24.4690270  62.0832250  82.2418430  24.8508850  66.1146570  83.5169600
  24.5537140  65.5092040  82.8377380  25.8008670  66.1523880  83.4058960
  23.0955770  59.2022220  85.1329430  23.6470360  59.3117560  84.3582680
  23.6099280  59.5759820  85.8484660  32.9394460  69.6878440  87.1792700
  32.4625020  70.4950630  86.9865310  32.2556250  69.0356770  87.3318910
  30.9832500  62.7021380  76.0818660  31.4225780  61.8643810  75.9356480
  31.6960920  63.3350780  76.1682800  22.7698500  62.7241580  88.7434770
  22.6306270  63.5964380  89.1122170  21.8879860  62.3814390  88.5982710
  29.0927880  67.6417450  80.0499900  29.5323790  68.3841780  79.6355290
  29.0314770  67.8844020  80.9738860  34.5649640  53.9564190  74.3959700
  34.2522300  54.0491020  75.2958770  35.3262110  54.5345220  74.3457130
  21.0831780  61.3223990  78.8537040  20.9629380  62.0486080  78.2418310
  20.7732670  60.5526900  78.3764950  18.7217150  64.4939130  84.6605680
  18.7997570  64.6287900  83.7161400  19.3358830  63.7855020  84.8533800
  19.9664780  66.1939320  81.0711860  19.5592860  66.3353910  80.2165460
  20.8577790  65.9099480  80.8683070  29.7843660  70.3431230  87.9778910
  30.2988330  70.2539240  88.7801340  28.9412740  70.6890930  88.2706820
  31.7598060  70.6286570  77.4062910  31.5999200  70.3389510  78.3044740
  31.5944770  69.8526700  76.8708140  24.2386440  70.4085100  79.1834530
  24.0628920  69.4920640  78.9702330  23.3842180  70.7672390  79.4232330
  31.4624190  68.1374130  75.9660910  30.7689350  68.1351420  75.3063190
  32.2047050  67.7133450  75.5355080  31.0274120  69.7636840  80.0409400
  31.4831070  68.9826220  80.3548020  31.3666640  70.4743660  80.5850580
  18.7776670  65.5353300  87.2000140  18.9407710  65.0658660  86.3819510
  19.2429120  65.0276860  87.8648980  23.5495440  54.6659060  82.2360710
  23.1063590  55.4468600  81.9045230  24.1080430  54.9888950  82.9431650
  27.8365250  57.5327580  87.8396030  27.3744620  57.7410600  88.6515970
  27.4343360  56.7186930  87.5366700  26.6654260  54.2869760  77.1166540
  26.0408440  54.2829630  77.8419850  26.5784380  53.4200720  76.7202510
  25.5871340  55.2106390  84.0950310  25.8843670  56.1169220  84.0142330
  26.1356900  54.7225170  83.4809880  23.3409660  59.7892630  79.9641960
  23.1150580  59.5729800  80.8688580  22.5602190  60.2221090  79.6187930
  30.5707420  59.7956000  78.5632610  29.9716310  60.5191800  78.3796230
  31.1187030  59.7332780  77.7809060  29.1772290  58.4319540  80.5935890
  29.5701860  58.7491740  79.7804580  29.5389140  57.5531420  80.7080410
  20.9119410  57.0991880  88.7836010  20.5182800  57.9467090  88.9908790
  20.2237810  56.4618250  88.9744650  18.2136460  55.0220340  82.8166090
  17.9249510  55.5923200  83.5291070  18.9582220  54.5424790  83.1797320
  18.4006690  58.9640460  74.0268810  18.3181360  59.9071220  74.1683800
  18.0489750  58.8215370  73.1481160  29.7627430  61.0225290  84.6886670
  29.0308550  61.5312100  85.0376770  29.3651770  60.2055270  84.3875450
  26.2004820  57.6979490  83.0939160  26.2040880  57.2569440  82.2443700
  27.0955940  58.0196820  83.2010980  22.0507200  57.5805980  82.0533370
  21.7107250  58.0581210  82.8100420  21.2884520  57.1271100  81.6934470
  26.2624970  58.6991570  76.0845920  26.3837790  58.6578050  77.0331740
  25.8773480  59.5615720  75.9292650  30.2253340  56.4758970  84.1009610
  30.2426080  56.9267620  84.9451460  29.9768920  55.5764610  84.3143050
  25.2746470  61.0092710  75.4829220  24.7063370  60.5610960  74.8565130
  25.9835470  61.3685490  74.9494370  26.5012790  61.7581270  84.8404570
  26.8682920  61.2839840  85.5865910  26.3117850  62.6322840  85.1812910
  19.3653280  56.5024960  80.9698040  19.0800200  56.1380630  81.8076660
  19.3032140  55.7705420  80.3561180  24.2912160  60.7989910  87.1588780
  23.9869230  61.6781890  87.3839140  25.2458620  60.8589700  87.1946220
  22.8193950  65.0050900  77.7555630  22.0456210  64.4648520  77.5954350
  23.5488580  64.4857510  77.4173390  33.5781930  64.0016260  83.5482020
  34.2981050  64.4971550  83.1578130  33.3763750  63.3234150  82.9035890
  29.0391870  55.3954220  77.6911410  28.2256480  54.8967390  77.6156720
  28.8453820  56.2352470  77.2747760  31.7540260  59.7673870  75.9873570
  32.6419880  60.0791100  75.8124910  31.7245350  58.8946120  75.5954150
  22.8631350  64.6731280  81.3934440  23.3810020  63.8699540  81.3391330
  22.4115370  64.6110420  82.2351270  27.7500850  65.9397560  76.6661740
  28.0916550  66.6839790  76.1705060  26.9213560  66.2528680  77.0286570
  20.3475890  61.6392650  88.3060140  19.9890830  62.3046500  88.8933480
  20.0530450  60.8076200  88.6772760  34.0254530  61.0785710  75.4553430
  33.9418250  61.5099930  74.6049870  34.7448720  61.5384060  75.8880250
  35.1028670  63.5353230  88.5323400  34.3776860  64.1282010  88.3352790
  35.6304130  63.5276770  87.7336770  35.0541780  67.9327970  78.1835560
  34.4117940  67.2783590  78.4579280  34.6672440  68.3383060  77.4076230
  30.6328260  65.2613400  82.0307250  30.9852080  64.6641530  81.3708620
  29.7490590  64.9357630  82.2015500  26.7191540  66.0211090  79.4377660
  27.4062670  66.5680300  79.8185250  25.9323960  66.5651820  79.4727270
  18.8583940  61.6383910  74.9294740  19.7278790  61.9208710  75.2130660
  18.3674260  62.4519780  74.8143550  26.0218750  63.0257120  79.0503020
  26.4781530  63.8362370  79.2763210  25.6706960  62.7080260  79.8821510
  28.3251360  68.5363460  86.2795320  28.9693580  68.7422840  86.9568740
  28.6880800  67.7751860  85.8266170  21.9230530  53.3694770  79.5225540
  21.7945160  53.3612670  80.4710460  21.0992550  53.7077860  79.1716550
  29.5983440  66.5395810  84.9972770  30.2405670  65.8388970  85.1104940
  30.1232790  67.3194250  84.8169660  33.4439160  66.8244430  74.7211910
  33.2176740  66.1074870  75.3136550  33.0535360  66.5756870  73.8833660
  31.3721060  67.3390710  88.2008830  31.7077300  67.9257400  88.8786750
  30.4521400  67.2083420  88.4306620  19.2255190  70.8511290  75.4956370
  19.5852830  71.4500630  74.8413640  19.0847530  71.3971180  76.2691400
  33.0255410  64.7416370  76.3826070  32.7377110  65.2029060  77.1703950
  33.8207580  64.2814140  76.6510290  25.2423810  68.2342490  76.3130040
  25.2333910  68.9672180  75.6974550  24.3222170  67.9874070  76.4057000
  20.8430450  63.4557380  77.0576800  20.2358400  64.1956280  77.0672100
  21.3179800  63.5456740  76.2315000  30.4163240  57.6208200  86.7333690
  30.7844060  56.8003410  87.0613260  29.5561440  57.6810090  87.1489340
  33.7825270  56.5765140  77.5421250  33.1538430  56.6810810  76.8279480
  33.2877190  56.7961920  78.3315130  28.2283410  68.2970730  74.9755230
  28.3295390  68.0934720  74.0457210  27.3285150  68.0429010  75.1803010
  25.7509300  58.8551090  78.9579130  25.0425450  59.3237430  79.3992740
  26.0353780  58.1973100  79.5924320  27.3765230  60.2747790  86.9571660
  27.8750480  60.7493610  87.6223510  27.5188180  59.3511310  87.1641690
  29.7824730  55.5801750  80.3974920  29.6592510  55.5987880  79.4484430
  30.7309290  55.6280690  80.5173320  26.8701520  70.8157050  79.6702900
  27.1243020  70.7778440  78.7482270  25.9214000  70.6890380  79.6631150
  23.9544320  57.1636170  76.3329840  24.8034850  57.6006320  76.2670030
  23.5875590  57.4756430  77.1601900  34.5832090  56.4915750  87.8000050
  34.0805690  57.2321150  88.1393860  35.3988750  56.8799750  87.4836840
  32.8754100  61.7348930  81.2461410  31.9344240  61.7499160  81.4209100
  33.1898170  60.9484890  81.6921710  22.8535740  63.4168530  74.8065370
  23.6199010  63.3049890  75.3690800  22.9310430  62.7206500  74.1542140
  21.5482500  60.8493600  75.4898260  21.6286090  59.9021110  75.6015660
  22.4402250  61.1800480  75.5958920  34.8779680  68.9057780  82.9215670
  35.0027100  69.7288950  83.3939480  35.7445240  68.6948510  82.5739820
  22.3497210  70.9988990  82.5932800  23.0859690  70.4504450  82.8641370
  22.7338130  71.8645000  82.4538790  19.2342690  67.0662560  78.4674310
  18.3082470  67.3083700  78.4579720  19.6999120  67.8936820  78.3459060
  25.4599520  70.1719300  74.4158370  26.2528130  70.4608130  73.9640160
  24.9403870  69.7411470  73.7370850  34.5129690  69.3989430  75.8395110
  34.2271200  68.9854570  75.0249290  34.3149240  70.3277140  75.7195630
  25.9776920  65.3922710  74.2800720  25.8727560  64.7775060  75.0062100
  25.8101140  64.8688600  73.4963730  29.2179650  64.4542740  74.8842710
  28.6689750  64.9012040  75.5285450  29.8398910  63.9491990  75.4080380
  24.8854770  63.4133660  76.7808010  25.3071190  63.2473530  77.6239400
  25.0105610  62.6033890  76.2863150  27.3982410  62.4371270  74.0285110
  27.9188070  61.7220290  73.6626260  28.0450810  63.0757140  74.3285620
  26.3015930  54.9165820  86.7003670  25.8533230  54.9390080  85.8549220
  25.6681130  54.5184840  87.2973970  26.7075480  63.8120150  87.3216110
  27.1263590  64.6552880  87.1492350  25.7884110  63.9492190  87.0922890
  31.3827280  62.0973520  87.2816460  30.8562500  62.6216140  86.6781600
  31.7258620  62.7300910  87.9126190  23.7813670  59.4866890  73.7266170
  23.5802730  58.6234250  74.0879510  23.6105720  59.4000250  72.7887770
  24.5582900  70.1173160  88.4373840  24.0203990  70.8419220  88.1182540
  24.8116860  69.6403500  87.6471180  31.2601980  54.2975120  76.2553050
  31.5404270  53.4543020  76.6112470  30.4867710  54.5298230  76.7691800
  22.5796470  56.5867510  73.7144050  22.8822370  56.5934940  72.8063200
  23.3191060  56.2365370  74.2111710  27.4145110  71.3524370  88.6960490
  27.3403810  72.2559510  89.0032860  26.5123950  71.0336270  88.6682560
  25.7981400  55.5302130  74.7000250  25.4503400  54.8526120  74.1202700
  25.9994170  55.0691640  75.5143640  27.9630440  70.5182880  76.3186850
  28.8581230  70.8567850  76.3405610  27.9948070  69.7962290  75.6911130
  21.6026600  65.8909930  74.5473850  22.0401470  66.4339600  75.2031430
  22.0874330  65.0656880  74.5570190  18.8172400  68.6798960  81.9994110
  19.1475410  67.8120020  81.7672750  19.2463400  68.8857480  82.8299070
  23.4134320  67.0107970  79.6596080  23.1129860  66.8872940  80.5599990
  23.3071810  66.1516560  79.2511810  19.3062610  69.5469550  84.7375740
  18.8693600  69.7270350  85.5699890  19.8740290  70.3044170  84.5957460
  36.1826240  66.7904370  74.3622760  35.3519200  66.8581020  74.8329990
  36.3598070  67.6808490  74.0589620  35.6382700  63.5351850  76.8656960
  36.4001610  64.1048500  76.9716650  35.6537070  62.9679050  77.6365270
  19.1387040  62.0589780  81.0964620  18.4835880  61.7901420  80.4524320
  19.9764990  61.9494260  80.6466600  36.6442670  64.3901950  81.7098890
  37.0151500  63.6069270  81.3034860  37.2844600  65.0791050  81.5316190
  33.6276430  65.7738530  87.1229210  32.8136270  66.2035690  87.3855000
  34.0350630  66.3856940  86.5098260  35.6901870  63.8286220  74.0229480
  35.9650710  64.7365100  73.8948700  35.5012610  63.7648750  74.9591470
  32.0877480  56.8531070  75.3183110  32.5062360  56.6662050  74.4779770
  31.7813540  56.0010120  75.6286040  35.5867210  61.7655210  79.0158910
  35.2110810  60.9983140  78.5840200  34.8570330  62.1477910  79.5033840
  20.1762970  62.4442350  85.6367960  20.5436010  62.3569750  86.5163980
  19.6073790  61.6808900  85.5374820  34.9766830  60.9126730  88.6498430
  34.7452920  60.6839480  87.7496380  35.2371380  61.8326280  88.6043320
  18.3525120  59.2688710  77.0389950  17.4489200  59.5318910  76.8641610
  18.8365740  59.5399880  76.2589910  34.8618170  59.9912700  82.3166150
  35.3855650  59.4975350  81.6856320  35.4477590  60.1263060  83.0613720
  35.0407890  60.0752570  85.8385700  34.0910600  60.0416110  85.9530690
  35.2220900  60.9852680  85.6035470  20.8952330  58.3254250  74.9484330
  21.6044030  57.9037470  74.4631610  20.1792270  58.3929480  74.3167680
  20.5426490  54.3793580  73.9886980  21.2654620  54.9202520  74.3068200
  20.8151010  54.1057000  73.1128520  34.3518140  59.2486050  78.2558560
  34.8477260  59.0156920  79.0407440  34.1534210  58.4097890  77.8396200
  20.2318680  53.6299770  83.8909600  20.8794870  53.0797150  83.4504760
  20.6520520  53.8842920  84.7125410  35.7805300  57.8847000  80.7896240
  35.6704580  57.7303040  81.7278510  36.5412890  57.3567940  80.5471650
  34.1271020  53.8241130  87.2479240  34.7643240  54.4375270  87.6138430
  34.2745910  53.8601790  86.3028470  36.6695570  55.7154920  74.0302380
  37.5944880  55.5836100  73.8220670  36.6471360  55.7947740  74.9838830
  36.7434060  56.4865580  76.6559090  35.9485560  56.4210700  77.1852000
  36.9477340  57.4216220  76.6444440  33.6852480  70.5257130  80.6497480
  34.2811550  70.2041700  79.9731900  33.9430630  70.0528950  81.4410750
  19.9850680  53.7855440  86.6334920  19.6365500  54.2419260  87.3993100
  19.6538380  52.8912570  86.7157350  25.2921080  68.5134630  86.3997830
  25.0512440  68.7809190  85.5128350  26.2323720  68.6840360  86.4548690
  36.5525240  70.5329010  87.2008470  36.0583520  70.9297880  86.4835600
  35.9438530  69.9078220  87.5945750  21.4303080  69.9037290  87.9185890
  20.8363400  69.7721990  88.6575930  21.4226920  69.0675430  87.4527990
  30.8758100  53.1969520  86.1215920  30.0017940  53.5304630  85.9188850
  30.7668850  52.7242700  86.9467790  31.7830080  55.4040390  87.5057640
  31.4543440  54.5892150  87.1259370  32.7312380  55.3610200  87.3823330
  34.2364690  71.1752430  84.4795210  33.7767660  71.9268240  84.1053230
  33.6077150  70.4558900  84.4210010  21.0615310  67.2695670  86.8693930
  20.3349370  66.6500960  86.8019880  21.1224460  67.6636280  85.9992010
  24.6660410  69.4840670  83.6543340  25.1825430  68.8728030  83.1291600
  25.3157790  69.9869450  84.1454350  27.4055910  70.3749160  84.4812320
  27.6933720  70.1203460  83.6045330  27.9179130  69.8226520  85.0717890
  28.6232920  54.1139360  85.0608830  27.8404710  54.5884860  85.3405590
  28.3295850  53.2094190  84.9522010  33.1753990  54.8162460  83.1057920
  33.6162080  54.7607560  82.2579520  32.9061580  55.7320470  83.1768100
  35.0392560  54.4477700  81.1166740  34.9780960  53.5038920  80.9697760
  35.8184590  54.5557790  81.6620200  19.3445310  70.5870060  80.0790690
  19.1767350  69.9540740  80.7772580  18.4779820  70.7929460  79.7284880
  19.9673330  54.4186840  77.5822550  20.7252690  54.5315720  77.0086580
  19.5050500  55.2556040  77.5365980  26.5087140  56.5326110  80.5724860
  25.6961650  56.1583000  80.2320740  27.0128780  55.7771190  80.8746050
  31.0112120  53.1968560  81.8107930  31.6141490  53.7688770  82.2856450
  30.2705110  53.7608000  81.5881830  34.1546720  53.5990120  77.0848210
  34.3497350  54.4973570  77.3515640  33.3676590  53.3677200  77.5781160
  20.9508010  69.2803290  77.5240830  20.4255630  69.6611320  76.8202790
  20.8752590  69.9054060  78.2450540  22.3398480  54.9450890  76.1224520
  22.8691240  54.1580690  75.9932470  22.9726800  55.6242080  76.3560050
  24.5336320  54.6826030  79.1769910  23.9039060  53.9813340  79.3440040
  23.9941460  55.4430160  78.9603070  35.7073330  70.8390830  78.8454770
  35.8825520  70.1528570  78.2015690  35.0094900  71.3637880  78.4531440
  23.5500980  71.2285670  76.3990080  24.2819800  70.9444950  75.8513970
  23.8094650  70.9898950  77.2889460  22.7115770  67.3450400  76.4036410
  22.0824650  67.8135500  76.9522240  22.8263600  66.4999620  76.8382600
  28.2983530  63.1735080  64.4346880  27.5225630  62.6935520  64.7245450
  28.9496460  62.4940730  64.2603040  22.3149360  63.4854890  65.3122640
  21.4834240  63.2303600  65.7119150  22.9230340  63.5565660  66.0480560
  32.3190960  67.5795270  63.2146010  31.8572490  66.8082510  63.5433180
  33.1316510  67.6061340  63.7198460  22.2950620  67.5194980  65.5080660
  22.5978660  66.6292720  65.3290880  23.0394210  68.0765200  65.2802910
  20.7241310  58.4456780  59.0965030  19.8358010  58.7872750  58.9944910
  21.0082500  58.2457100  58.2045860  18.6874320  61.0462430  64.9804730
  19.2590430  60.2784630  64.9808370  18.6875860  61.3451190  64.0711340
  28.5454270  69.8653280  62.8350000  27.9265710  70.3210780  62.2644440
  29.4006050  70.0204740  62.4339700  27.7392520  65.8492270  64.4417040
  27.6700800  64.9082210  64.2806170  28.5012380  65.9393680  65.0139610
  19.9299190  56.4546790  66.7673660  19.7502030  55.5572540  67.0476420
  19.5279270  57.0018660  67.4420610  28.7697690  58.6562650  64.6685970
  29.1462510  57.7834530  64.5559640  28.6717200  58.9921350  63.7776410
  22.9002700  57.0288280  60.1303410  23.0069450  57.9292010  60.4372170
  21.9895060  56.9806250  59.8398060  20.5485860  58.9507290  65.3756000
  21.2295970  59.2145660  65.9943400  20.2333910  58.1108160  65.7094010
  24.7410430  59.9974650  64.4628590  25.2488650  60.4955620  65.1033610
  25.2723670  59.2209850  64.2867950  36.8421360  58.1679840  68.1657940
  36.1373530  58.5561550  67.6473050  37.1079280  58.8630130  68.7678870
  23.0246530  54.6373210  68.7292010  23.0264970  55.1545600  67.9237910
  22.1950840  54.1603390  68.7061940  29.4117620  64.7492520  60.2281910
  28.7934890  65.2141970  59.6644630  29.9240870  65.4420000  60.6451420
  24.2749380  64.2768390  66.9065510  23.9418760  64.9037310  67.5486580
  24.4516060  64.8030270  66.1267180  22.7061860  56.3483170  66.7362460
  23.0478670  57.1925220  66.4416330  21.7677670  56.4966910  66.8527800
  23.4868480  66.2449190  68.7214690  24.1042480  66.9200270  68.4399140
  22.6261600  66.6537170  68.6302190  18.7800820  65.4349050  57.6021540
  18.4028800  65.9236150  56.8706440  19.0373890  66.1074330  58.2328070
  34.4046070  67.7088600  66.6369330  33.7209590  68.3787710  66.6286000
  34.9440360  67.9069250  65.8714190  31.9404810  69.5532730  65.3514510
  31.9531970  69.1495020  64.4836770  31.3880030  70.3280020  65.2475940
  33.2350230  66.2748950  60.4404680  33.1246560  65.3323280  60.5654100
  33.2318480  66.6364590  61.3267440  31.3390250  64.4562570  66.6797120
  31.7559040  64.2422680  65.8450580  32.0630070  64.7135360  67.2505740
  28.7770510  61.9014270  59.7967170  27.8499790  61.8351650  60.0255640
  28.9295330  62.8394400  59.6822410  35.2852350  62.8549790  66.7713360
  34.4570980  62.9242880  66.2963490  35.8802830  63.4404100  66.3029190
  32.8067800  63.4634570  60.3002420  32.1880220  63.1254120  59.6528720
  32.7892250  62.8194330  61.0081610  32.2494360  59.6419110  67.7168230
  31.8365540  60.4672820  67.9708220  31.5170310  59.0564150  67.5244590
  24.3827150  62.4279010  62.5786900  23.9784150  61.7156260  62.0832800
  24.4690270  62.0832250  63.4674940  24.8508850  66.1146570  64.7426110
  24.5537140  65.5092040  64.0633890  25.8008670  66.1523880  64.6315470
  23.0955770  59.2022220  66.3585940  23.6470360  59.3117560  65.5839190
  23.6099280  59.5759820  67.0741170  32.9394460  69.6878440  68.4049210
  32.4625020  70.4950630  68.2121820  32.2556250  69.0356770  68.5575420
  23.9427280  65.8528260  71.3933910  23.0455810  66.0768230  71.6407310
  23.9680150  65.9763200  70.4445310  30.9832500  62.7021380  57.3075170
  31.4225780  61.8643810  57.1612990  31.6960920  63.3350780  57.3939310
  22.7698500  62.7241580  69.9691280  22.6306270  63.5964380  70.3378680
  21.8879860  62.3814390  69.8239220  29.0927880  67.6417450  61.2756410
  29.5323790  68.3841780  60.8611800  29.0314770  67.8844020  62.1995370
  24.5678850  68.6663280  72.1776430  24.5394280  69.0706230  71.3104860
  24.4043820  67.7373640  72.0148030  21.0831780  61.3223990  60.0793550
  20.9629380  62.0486080  59.4674820  20.7732670  60.5526900  59.6021460
  36.5193670  69.4490380  73.4740600  36.9953390  69.9273270  74.1529680
  37.1400830  69.3807870  72.7486100  18.7217150  64.4939130  65.8862190
  18.7997570  64.6287900  64.9417910  19.3358830  63.7855020  66.0790310
  19.9664780  66.1939320  62.2968370  19.5592860  66.3353910  61.4421970
  20.8577790  65.9099480  62.0939580  35.9226920  66.6403230  70.6340610
  36.0489980  66.4015110  69.7157790  35.9648300  65.8087770  71.1062690
  29.7843660  70.3431230  69.2035420  30.2988330  70.2539240  70.0057850
  28.9412740  70.6890930  69.4963330  31.7598060  70.6286570  58.6319420
  31.5999200  70.3389510  59.5301250  31.5944770  69.8526700  58.0964650
  24.2386440  70.4085100  60.4091040  24.0628920  69.4920640  60.1958840
  23.3842180  70.7672390  60.6488840  31.4624190  68.1374130  57.1917420
  30.7689350  68.1351420  56.5319700  32.2047050  67.7133450  56.7611590
  31.0274120  69.7636840  61.2665910  31.4831070  68.9826220  61.5804530
  31.3666640  70.4743660  61.8107090  35.7750930  58.6935690  71.5990350
  35.1595200  59.2015360  71.0705810  35.4547350  57.7934020  71.5416290
  18.7776670  65.5353300  68.4256650  18.9407710  65.0658660  67.6076020
  19.2429120  65.0276860  69.0905490  23.5495440  54.6659060  63.4617220
  23.1063590  55.4468600  63.1301740  24.1080430  54.9888950  64.1688160
  27.8365250  57.5327580  69.0652540  27.3744620  57.7410600  69.8772480
  27.4343360  56.7186930  68.7623210  32.8369760  58.7536530  70.1949200
  31.9863350  58.4542280  70.5158270  32.6771550  58.9978540  69.2833020
  29.9319470  60.2538280  72.2947990  30.2572880  59.4202030  71.9550220
  30.7199800  60.7766800  72.4426320  25.5871340  55.2106390  65.3206820
  25.8843670  56.1169220  65.2398840  26.1356900  54.7225170  64.7066390
  23.3409660  59.7892630  61.1898470  23.1150580  59.5729800  62.0945090
  22.5602190  60.2221090  60.8444440  25.7808870  60.6878210  71.8558740
  25.6852470  59.7472940  71.7059140  26.6240850  60.9093280  71.4606810
  20.9119410  57.0991880  70.0092520  20.5182800  57.9467090  70.2165300
  20.2237810  56.4618250  70.2001160  27.4864460  57.1826850  73.0789260
  26.7962780  56.9899050  73.7135350  28.2296760  57.4661490  73.6113560
  18.2136460  55.0220340  64.0422600  17.9249510  55.5923200  64.7547580
  18.9582220  54.5424790  64.4053830  18.4006690  58.9640460  55.2525320
  18.3181360  59.9071220  55.3940310  18.0489750  58.8215370  54.3737670
  29.7627430  61.0225290  65.9143180  29.0308550  61.5312100  66.2633280
  29.3651770  60.2055270  65.6131960  26.2004820  57.6979490  64.3195670
  26.2040880  57.2569440  63.4700210  27.0955940  58.0196820  64.4267490
  22.0507200  57.5805980  63.2789880  21.7107250  58.0581210  64.0356930
  21.2884520  57.1271100  62.9190980  26.2624970  58.6991570  57.3102430
  26.3837790  58.6578050  58.2588250  25.8773480  59.5615720  57.1549160
  25.2746470  61.0092710  56.7085730  24.7063370  60.5610960  56.0821640
  25.9835470  61.3685490  56.1750880  33.6524090  53.8891150  71.1652500
  33.9769860  53.1580810  71.6910480  33.6880600  53.5704790  70.2633490
  20.3515650  64.9104730  70.5852460  19.9670440  64.2698400  71.1835420
  20.6627840  65.6140850  71.1547190  26.5012790  61.7581270  66.0661080
  26.8682920  61.2839840  66.8122420  26.3117850  62.6322840  66.4069420
  19.3653280  56.5024960  62.1954550  19.0800200  56.1380630  63.0333170
  19.3032140  55.7705420  61.5817690  24.2912160  60.7989910  68.3845290
  23.9869230  61.6781890  68.6095650  25.2458620  60.8589700  68.4202730
  22.8193950  65.0050900  58.9812140  22.0456210  64.4648520  58.8210860
  23.5488580  64.4857510  58.6429900  33.5781930  64.0016260  64.7738530
  34.2981050  64.4971550  64.3834640  33.3763750  63.3234150  64.1292400
  28.9600730  64.0725320  70.6607530  28.8938040  63.1520990  70.4065120
  28.3305870  64.1700760  71.3752170  22.8631350  64.6731280  62.6190950
  23.3810020  63.8699540  62.5647840  22.4115370  64.6110420  63.4607780
  27.7500850  65.9397560  57.8918250  28.0916550  66.6839790  57.3961570
  26.9213560  66.2528680  58.2543080  20.3475890  61.6392650  69.5316650
  19.9890830  62.3046500  70.1189990  20.0530450  60.8076200  69.9029270
  23.5489010  62.0976890  72.4156200  23.2489150  62.2434070  71.5184020
  24.3200250  61.5382180  72.3229590  28.8917460  66.8945890  70.4111330
  28.9062000  65.9626850  70.1930240  28.1842560  66.9805650  71.0501100
  35.1028670  63.5353230  69.7579910  34.3776860  64.1282010  69.5609300
  35.6304130  63.5276770  68.9593280  35.0541780  67.9327970  59.4092070
  34.4117940  67.2783590  59.6835790  34.6672440  68.3383060  58.6332740
  30.6328260  65.2613400  63.2563760  30.9852080  64.6641530  62.5965130
  29.7490590  64.9357630  63.4272010  26.7191540  66.0211090  60.6634170
  27.4062670  66.5680300  61.0441760  25.9323960  66.5651820  60.6983780
  18.8583940  61.6383910  56.1551250  19.7278790  61.9208710  56.4387170
  18.3674260  62.4519780  56.0400060  26.0218750  63.0257120  60.2759530
  26.4781530  63.8362370  60.5019720  25.6706960  62.7080260  61.1078020
  28.3251360  68.5363460  67.5051830  28.9693580  68.7422840  68.1825250
  28.6880800  67.7751860  67.0522680  29.5983440  66.5395810  66.2229280
  30.2405670  65.8388970  66.3361450  30.1232790  67.3194250  66.0426170
  33.4439160  66.8244430  55.9468420  33.2176740  66.1074870  56.5393060
  33.0535360  66.5756870  55.1090170  31.3721060  67.3390710  69.4265340
  31.7077300  67.9257400  70.1043260  30.4521400  67.2083420  69.6563130
  19.2255190  70.8511290  56.7212880  19.5852830  71.4500630  56.0670150
  19.0847530  71.3971180  57.4947910  18.9224460  55.1285890  70.2088750
  18.2082980  55.3282810  70.8141360  19.3419500  54.3525460  70.5803550
  33.0255410  64.7416370  57.6082580  32.7377110  65.2029060  58.3960460
  33.8207580  64.2814140  57.8766800  19.2097050  69.1166150  71.1955280
  19.3188170  68.1760890  71.0550670  18.5577610  69.3820900  70.5469010
  27.2009640  67.3882040  72.5953400  26.8806510  66.6691280  73.1399090
  26.5268000  68.0637110  72.6689460  25.2423810  68.2342490  57.5386550
  25.2333910  68.9672180  56.9231060  24.3222170  67.9874070  57.6313510
  20.8430450  63.4557380  58.2833310  20.2358400  64.1956280  58.2928610
  21.3179800  63.5456740  57.4571510  30.4163240  57.6208200  67.9590200
  30.7844060  56.8003410  68.2869770  29.5561440  57.6810090  68.3745850
  28.2283410  68.2970730  56.2011740  28.3295390  68.0934720  55.2713720
  27.3285150  68.0429010  56.4059520  25.7509300  58.8551090  60.1835640
  25.0425450  59.3237430  60.6249250  26.0353780  58.1973100  60.8180830
  27.3765230  60.2747790  68.1828170  27.8750480  60.7493610  68.8480020
  27.5188180  59.3511310  68.3898200  26.8701520  70.8157050  60.8959410
  27.1243020  70.7778440  59.9738780  25.9214000  70.6890380  60.8887660
  34.5832090  56.4915750  69.0256560  34.0805690  57.2321150  69.3650370
  35.3988750  56.8799750  68.7093350  32.8754100  61.7348930  62.4717920
  31.9344240  61.7499160  62.6465610  33.1898170  60.9484890  62.9178220
  22.8535740  63.4168530  56.0321880  23.6199010  63.3049890  56.5947310
  22.9310430  62.7206500  55.3798650  21.5482500  60.8493600  56.7154770
  21.6286090  59.9021110  56.8272170  22.4402250  61.1800480  56.8215430
  34.8779680  68.9057780  64.1472180  35.0027100  69.7288950  64.6195990
  35.7445240  68.6948510  63.7996330  22.3497210  70.9988990  63.8189310
  23.0859690  70.4504450  64.0897880  22.7338130  71.8645000  63.6795300
  19.2342690  67.0662560  59.6930820  18.3082470  67.3083700  59.6836230
  19.6999120  67.8936820  59.5715570  21.3555490  70.1835060  73.0074890
  22.1568220  70.5047110  73.4210290  20.8407310  69.8230640  73.7294800
  25.4599520  70.1719300  55.6414880  26.2528130  70.4608130  55.1896670
  24.9403870  69.7411470  54.9627360  30.1920120  66.2914930  72.9550300
  29.5858280  66.3146530  72.2146050  29.8874230  65.5597970  73.4917550
  31.6220490  70.0195220  71.5659710  32.5742240  69.9353240  71.5159950
  31.4748710  70.6836930  72.2393500  34.5129690  69.3989430  57.0651620
  34.2271200  68.9854570  56.2505800  34.3149240  70.3277140  56.9452140
  19.0753300  62.6708520  71.9510940  19.5792320  62.0915800  72.5227170
  18.3360720  62.9548750  72.4887310  25.9776920  65.3922710  55.5057230
  25.8727560  64.7775060  56.2318610  25.8101140  64.8688600  54.7220240
  26.1291240  64.0779510  71.4846460  25.3636910  64.6464510  71.4001130
  26.3107200  63.7855720  70.5914690  29.2179650  64.4542740  56.1099220
  28.6689750  64.9012040  56.7541960  29.8398910  63.9491990  56.6336890
  33.2714590  65.8084840  72.0421480  34.0124060  66.1460600  71.5388940
  32.5087270  65.9776900  71.4891250  21.1076380  60.8138110  72.8461010
  21.1481720  60.5151980  73.7546240  21.9621880  61.2145720  72.6868530
  24.8854770  63.4133660  58.0064520  25.3071190  63.2473530  58.8495910
  25.0105610  62.6033890  57.5119660  23.0482190  59.3930210  70.8135500
  22.5178650  58.9021160  70.1858840  23.7170260  59.8214410  70.2793430
  31.9460250  63.8599670  70.5776690  32.3601270  64.0144750  71.4267110
  31.0111250  63.9854890  70.7402470  32.4182420  61.1995830  72.5815840
  33.0003190  60.4448150  72.4936320  32.5944190  61.7303270  71.8047320
  23.5354490  56.3592580  70.8932790  23.4411360  55.7413330  70.1683660
  22.9551880  57.0858870  70.6662700  26.3015930  54.9165820  67.9260180
  25.8533230  54.9390080  67.0805730  25.6681130  54.5184840  68.5230480
  26.7075480  63.8120150  68.5472620  27.1263590  64.6552880  68.3748860
  25.7884110  63.9492190  68.3179400  29.0439380  61.5436330  69.9310460
  29.1635590  60.9477470  70.6705300  29.9033380  61.5806020  69.5111760
  31.3827280  62.0973520  68.5072970  30.8562500  62.6216140  67.9038110
  31.7258620  62.7300910  69.1382700  23.7813670  59.4866890  54.9522680
  23.5802730  58.6234250  55.3136020  23.6105720  59.4000250  54.0144280
  24.5582900  70.1173160  69.6630350  24.0203990  70.8419220  69.3439050
  24.8116860  69.6403500  68.8727690  25.8108150  58.0857680  71.1886280
  26.4007840  57.7773530  71.8764100  24.9928390  57.6137430  71.3446180
  30.6301580  57.7023490  71.4219300  29.9417100  57.0405030  71.3569290
  31.3507600  57.2561760  71.8667760  22.5796470  56.5867510  54.9400560
  22.8822370  56.5934940  54.0319710  23.3191060  56.2365370  55.4368220
  27.4145110  71.3524370  69.9217000  27.3403810  72.2559510  70.2289370
  26.5123950  71.0336270  69.8939070  27.9630440  70.5182880  57.5443360
  28.8581230  70.8567850  57.5662120  27.9948070  69.7962290  56.9167640
  21.6026600  65.8909930  55.7730360  22.0401470  66.4339600  56.4287940
  22.0874330  65.0656880  55.7826700  18.8172400  68.6798960  63.2250620
  19.1475410  67.8120020  62.9929260  19.2463400  68.8857480  64.0555580
  23.4134320  67.0107970  60.8852590  23.1129860  66.8872940  61.7856500
  23.3071810  66.1516560  60.4768320  19.3062610  69.5469550  65.9632250
  18.8693600  69.7270350  66.7956400  19.8740290  70.3044170  65.8213970
  34.9424790  69.0486550  70.2509560  34.3426780  69.1079110  69.5073480
  35.0718690  68.1091530  70.3806410  36.1826240  66.7904370  55.5879270
  35.3519200  66.8581020  56.0586500  36.3598070  67.6808490  55.2846130
  19.1387040  62.0589780  62.3221130  18.4835880  61.7901420  61.6780830
  19.9764990  61.9494260  61.8723110  36.6442670  64.3901950  62.9355400
  37.0151500  63.6069270  62.5291370  37.2844600  65.0791050  62.7572700
  33.6276430  65.7738530  68.3485720  32.8136270  66.2035690  68.6111510
  34.0350630  66.3856940  67.7354770  20.1762970  62.4442350  66.8624470
  20.5436010  62.3569750  67.7420490  19.6073790  61.6808900  66.7631330
  34.9766830  60.9126730  69.8754940  34.7452920  60.6839480  68.9752890
  35.2371380  61.8326280  69.8299830  19.7278970  59.3551440  70.7682890
  18.8335020  59.3218200  71.1076600  20.2676520  59.5538230  71.5334140
  33.4154900  56.1383160  72.6534640  34.2925080  56.1466560  73.0368640
  33.4275740  55.4014000  72.0426990  18.3525120  59.2688710  58.2646460
  17.4489200  59.5318910  58.0898120  18.8365740  59.5399880  57.4846420
  34.8618170  59.9912700  63.5422660  35.3855650  59.4975350  62.9112830
  35.4477590  60.1263060  64.2870230  35.0407890  60.0752570  67.0642210
  34.0910600  60.0416110  67.1787200  35.2220900  60.9852680  66.8291980
  20.8952330  58.3254250  56.1740840  21.6044030  57.9037470  55.6888120
  20.1792270  58.3929480  55.5424190  20.5426490  54.3793580  55.2143490
  21.2654620  54.9202520  55.5324710  20.8151010  54.1057000  54.3385030
  20.2318680  53.6299770  65.1166110  20.8794870  53.0797150  64.6761270
  20.6520520  53.8842920  65.9381920  33.6852480  70.5257130  61.8753990
  34.2811550  70.2041700  61.1988410  33.9430630  70.0528950  62.6667260
  19.9850680  53.7855440  67.8591430  19.6365500  54.2419260  68.6249610
  19.6538380  52.8912570  67.9413860  21.5915050  66.9575040  72.0244620
  21.5484680  66.5867950  72.9059080  21.7226060  67.8952610  72.1646440
  25.2921080  68.5134630  67.6254340  25.0512440  68.7809190  66.7384860
  26.2323720  68.6840360  67.6805200  30.1350060  54.6337380  71.0203140
  30.7490470  54.9516670  70.3584220  30.6799620  54.1485970  71.6399000
  36.5525240  70.5329010  68.4264980  36.0583520  70.9297880  67.7092110
  35.9438530  69.9078220  68.8202260  21.4303080  69.9037290  69.1442400
  20.8363400  69.7721990  69.8832440  21.4226920  69.0675430  68.6784500
  34.2364690  71.1752430  65.7051720  33.7767660  71.9268240  65.3309740
  33.6077150  70.4558900  65.6466520  21.0615310  67.2695670  68.0950440
  20.3349370  66.6500960  68.0276390  21.1224460  67.6636280  67.2248520
  24.6660410  69.4840670  64.8799850  25.1825430  68.8728030  64.3548110
  25.3157790  69.9869450  65.3710860  27.4055910  70.3749160  65.7068830
  27.6933720  70.1203460  64.8301840  27.9179130  69.8226520  66.2974400
  19.3445310  70.5870060  61.3047200  19.1767350  69.9540740  62.0029090
  18.4779820  70.7929460  60.9541390  26.5087140  56.5326110  61.7981370
  25.6961650  56.1583000  61.4577250  27.0128780  55.7771190  62.1002560
  20.9508010  69.2803290  58.7497340  20.4255630  69.6611320  58.0459300
  20.8752590  69.9054060  59.4707050  27.4728270  71.2965260  73.0737030
  28.3995580  71.0609530  73.1172990  27.4578700  72.1237260  72.5923060
  35.7073330  70.8390830  60.0711280  35.8825520  70.1528570  59.4272200
  35.0094900  71.3637880  59.6787950  23.5500980  71.2285670  57.6246590
  24.2819800  70.9444950  57.0770480  23.8094650  70.9898950  58.5145970
  22.7115770  67.3450400  57.6292920  22.0824650  67.8135500  58.1778750
  22.8263600  66.4999620  58.0639110  31.2607340  53.3763590  73.4159380
  31.1472790  53.6958200  74.3110900  32.0777080  53.7776100  73.1196660
  34.0405830  70.5235120  72.8978070  34.8331150  70.0284350  72.6904030
  34.3338980  71.2025260  73.5053680  22.3149360  63.4854890  46.5379150
  21.4834240  63.2303600  46.9375660  22.9230340  63.5565660  47.2737070
  32.3190960  67.5795270  44.4402520  31.8572490  66.8082510  44.7689690
  33.1316510  67.6061340  44.9454970  22.2950620  67.5194980  46.7337170
  22.5978660  66.6292720  46.5547390  23.0394210  68.0765200  46.5059420
  18.6874320  61.0462430  46.2061240  19.2590430  60.2784630  46.2064880
  18.6875860  61.3451190  45.2967850  28.5454270  69.8653280  44.0606510
  27.9265710  70.3210780  43.4900950  29.4006050  70.0204740  43.6596210
  27.7392520  65.8492270  45.6673550  27.6700800  64.9082210  45.5062680
  28.5012380  65.9393680  46.2396120  23.0246530  54.6373210  49.9548520
  23.0264970  55.1545600  49.1494420  22.1950840  54.1603390  49.9318450
  29.4117620  64.7492520  41.4538420  28.7934890  65.2141970  40.8901140
  29.9240870  65.4420000  41.8707930  24.2749380  64.2768390  48.1322020
  23.9418760  64.9037310  48.7743090  24.4516060  64.8030270  47.3523690
  23.4868480  66.2449190  49.9471200  24.1042480  66.9200270  49.6655650
  22.6261600  66.6537170  49.8558700  18.7800820  65.4349050  38.8278050
  18.4028800  65.9236150  38.0962950  19.0373890  66.1074330  39.4584580
  34.4046070  67.7088600  47.8625840  33.7209590  68.3787710  47.8542510
  34.9440360  67.9069250  47.0970700  31.9404810  69.5532730  46.5771020
  31.9531970  69.1495020  45.7093280  31.3880030  70.3280020  46.4732450
  33.2350230  66.2748950  41.6661190  33.1246560  65.3323280  41.7910610
  33.2318480  66.6364590  42.5523950  24.8508850  66.1146570  45.9682620
  24.5537140  65.5092040  45.2890400  25.8008670  66.1523880  45.8571980
  32.9394460  69.6878440  49.6305720  32.4625020  70.4950630  49.4378330
  32.2556250  69.0356770  49.7831930  23.9427280  65.8528260  52.6190420
  23.0455810  66.0768230  52.8663820  23.9680150  65.9763200  51.6701820
  30.9832500  62.7021380  38.5331680  31.4225780  61.8643810  38.3869500
  31.6960920  63.3350780  38.6195820  22.7698500  62.7241580  51.1947790
  22.6306270  63.5964380  51.5635190  21.8879860  62.3814390  51.0495730
  29.0927880  67.6417450  42.5012920  29.5323790  68.3841780  42.0868310
  29.0314770  67.8844020  43.4251880  24.5678850  68.6663280  53.4032940
  24.5394280  69.0706230  52.5361370  24.4043820  67.7373640  53.2404540
  36.5193670  69.4490380  54.6997110  36.9953390  69.9273270  55.3786190
  37.1400830  69.3807870  53.9742610  18.7217150  64.4939130  47.1118700
  18.7997570  64.6287900  46.1674420  19.3358830  63.7855020  47.3046820
  19.9664780  66.1939320  43.5224880  19.5592860  66.3353910  42.6678480
  20.8577790  65.9099480  43.3196090  29.7843660  70.3431230  50.4291930
  30.2988330  70.2539240  51.2314360  28.9412740  70.6890930  50.7219840
  31.7598060  70.6286570  39.8575930  31.5999200  70.3389510  40.7557760
  31.5944770  69.8526700  39.3221160  24.2386440  70.4085100  41.6347550
  24.0628920  69.4920640  41.4215350  23.3842180  70.7672390  41.8745350
  31.4624190  68.1374130  38.4173930  30.7689350  68.1351420  37.7576210
  32.2047050  67.7133450  37.9868100  31.0274120  69.7636840  42.4922420
  31.4831070  68.9826220  42.8061040  31.3666640  70.4743660  43.0363600
  18.7776670  65.5353300  49.6513160  18.9407710  65.0658660  48.8332530
  19.2429120  65.0276860  50.3162000  20.9119410  57.0991880  51.2349030
  20.5182800  57.9467090  51.4421810  20.2237810  56.4618250  51.4257670
  18.4006690  58.9640460  36.4781830  18.3181360  59.9071220  36.6196820
  18.0489750  58.8215370  35.5994180  20.3515650  64.9104730  51.8108970
  19.9670440  64.2698400  52.4091930  20.6627840  65.6140850  52.3803700
  24.2912160  60.7989910  49.6101800  23.9869230  61.6781890  49.8352160
  25.2458620  60.8589700  49.6459240  22.8631350  64.6731280  43.8447460
  23.3810020  63.8699540  43.7904350  22.4115370  64.6110420  44.6864290
  27.7500850  65.9397560  39.1174760  28.0916550  66.6839790  38.6218080
  26.9213560  66.2528680  39.4799590  20.3475890  61.6392650  50.7573160
  19.9890830  62.3046500  51.3446500  20.0530450  60.8076200  51.1285780
  23.5489010  62.0976890  53.6412710  23.2489150  62.2434070  52.7440530
  24.3200250  61.5382180  53.5486100  28.8917460  66.8945890  51.6367840
  28.9062000  65.9626850  51.4186750  28.1842560  66.9805650  52.2757610
  35.1028670  63.5353230  50.9836420  34.3776860  64.1282010  50.7865810
  35.6304130  63.5276770  50.1849790  35.0541780  67.9327970  40.6348580
  34.4117940  67.2783590  40.9092300  34.6672440  68.3383060  39.8589250
  26.7191540  66.0211090  41.8890680  27.4062670  66.5680300  42.2698270
  25.9323960  66.5651820  41.9240290  28.3251360  68.5363460  48.7308340
  28.9693580  68.7422840  49.4081760  28.6880800  67.7751860  48.2779190
  33.4439160  66.8244430  37.1724930  33.2176740  66.1074870  37.7649570
  33.0535360  66.5756870  36.3346680  31.3721060  67.3390710  50.6521850
  31.7077300  67.9257400  51.3299770  30.4521400  67.2083420  50.8819640
  19.2255190  70.8511290  37.9469390  19.5852830  71.4500630  37.2926660
  19.0847530  71.3971180  38.7204420  18.9224460  55.1285890  51.4345260
  18.2082980  55.3282810  52.0397870  19.3419500  54.3525460  51.8060060
  33.0255410  64.7416370  38.8339090  32.7377110  65.2029060  39.6216970
  33.8207580  64.2814140  39.1023310  19.2097050  69.1166150  52.4211790
  19.3188170  68.1760890  52.2807180  18.5577610  69.3820900  51.7725520
  27.2009640  67.3882040  53.8209910  26.8806510  66.6691280  54.3655600
  26.5268000  68.0637110  53.8945970  25.2423810  68.2342490  38.7643060
  25.2333910  68.9672180  38.1487570  24.3222170  67.9874070  38.8570020
  28.2283410  68.2970730  37.4268250  28.3295390  68.0934720  36.4970230
  27.3285150  68.0429010  37.6316030  26.8701520  70.8157050  42.1215920
  27.1243020  70.7778440  41.1995290  25.9214000  70.6890380  42.1144170
  34.8779680  68.9057780  45.3728690  35.0027100  69.7288950  45.8452500
  35.7445240  68.6948510  45.0252840  22.3497210  70.9988990  45.0445820
  23.0859690  70.4504450  45.3154390  22.7338130  71.8645000  44.9051810
  19.2342690  67.0662560  40.9187330  18.3082470  67.3083700  40.9092740
  19.6999120  67.8936820  40.7972080  21.3555490  70.1835060  54.2331400
  22.1568220  70.5047110  54.6466800  20.8407310  69.8230640  54.9551310
  25.4599520  70.1719300  36.8671390  26.2528130  70.4608130  36.4153180
  24.9403870  69.7411470  36.1883870  30.1920120  66.2914930  54.1806810
  29.5858280  66.3146530  53.4402560  29.8874230  65.5597970  54.7174060
  31.6220490  70.0195220  52.7916220  32.5742240  69.9353240  52.7416460
  31.4748710  70.6836930  53.4650010  34.5129690  69.3989430  38.2908130
  34.2271200  68.9854570  37.4762310  34.3149240  70.3277140  38.1708650
  19.0753300  62.6708520  53.1767450  19.5792320  62.0915800  53.7483680
  18.3360720  62.9548750  53.7143820  25.9776920  65.3922710  36.7313740
  25.8727560  64.7775060  37.4575120  25.8101140  64.8688600  35.9476750
  26.1291240  64.0779510  52.7102970  25.3636910  64.6464510  52.6257640
  26.3107200  63.7855720  51.8171200  29.2179650  64.4542740  37.3355730
  28.6689750  64.9012040  37.9798470  29.8398910  63.9491990  37.8593400
  33.2714590  65.8084840  53.2677990  34.0124060  66.1460600  52.7645450
  32.5087270  65.9776900  52.7147760  21.1076380  60.8138110  54.0717520
  21.1481720  60.5151980  54.9802750  21.9621880  61.2145720  53.9125040
  23.0482190  59.3930210  52.0392010  22.5178650  58.9021160  51.4115350
  23.7170260  59.8214410  51.5049940  27.3982410  62.4371270  36.4798130
  27.9188070  61.7220290  36.1139280  28.0450810  63.0757140  36.7798640
  23.5354490  56.3592580  52.1189300  23.4411360  55.7413330  51.3940170
  22.9551880  57.0858870  51.8919210  26.7075480  63.8120150  49.7729130
  27.1263590  64.6552880  49.6005370  25.7884110  63.9492190  49.5435910
  23.7813670  59.4866890  36.1779190  23.5802730  58.6234250  36.5392530
  23.6105720  59.4000250  35.2400790  24.5582900  70.1173160  50.8886860
  24.0203990  70.8419220  50.5695560  24.8116860  69.6403500  50.0984200
  25.8108150  58.0857680  52.4142790  26.4007840  57.7773530  53.1020610
  24.9928390  57.6137430  52.5702690  27.4145110  71.3524370  51.1473510
  27.3403810  72.2559510  51.4545880  26.5123950  71.0336270  51.1195580
  27.9630440  70.5182880  38.7699870  28.8581230  70.8567850  38.7918630
  27.9948070  69.7962290  38.1424150  21.6026600  65.8909930  36.9986870
  22.0401470  66.4339600  37.6544450  22.0874330  65.0656880  37.0083210
  18.8172400  68.6798960  44.4507130  19.1475410  67.8120020  44.2185770
  19.2463400  68.8857480  45.2812090  23.4134320  67.0107970  42.1109100
  23.1129860  66.8872940  43.0113010  23.3071810  66.1516560  41.7024830
  19.3062610  69.5469550  47.1888760  18.8693600  69.7270350  48.0212910
  19.8740290  70.3044170  47.0470480  34.9424790  69.0486550  51.4766070
  34.3426780  69.1079110  50.7329990  35.0718690  68.1091530  51.6062920
  36.1826240  66.7904370  36.8135780  35.3519200  66.8581020  37.2843010
  36.3598070  67.6808490  36.5102640  33.6276430  65.7738530  49.5742230
  32.8136270  66.2035690  49.8368020  34.0350630  66.3856940  48.9611280
  35.6901870  63.8286220  36.4742500  35.9650710  64.7365100  36.3461720
  35.5012610  63.7648750  37.4104490  20.1762970  62.4442350  48.0880980
  20.5436010  62.3569750  48.9677000  19.6073790  61.6808900  47.9887840
  19.7278970  59.3551440  51.9939400  18.8335020  59.3218200  52.3333110
  20.2676520  59.5538230  52.7590650  20.8952330  58.3254250  37.3997350
  21.6044030  57.9037470  36.9144630  20.1792270  58.3929480  36.7680700
  20.5426490  54.3793580  36.4400000  21.2654620  54.9202520  36.7581220
  20.8151010  54.1057000  35.5641540  33.6852480  70.5257130  43.1010500
  34.2811550  70.2041700  42.4244920  33.9430630  70.0528950  43.8923770
  19.9850680  53.7855440  49.0847940  19.6365500  54.2419260  49.8506120
  19.6538380  52.8912570  49.1670370  21.5915050  66.9575040  53.2501130
  21.5484680  66.5867950  54.1315590  21.7226060  67.8952610  53.3902950
  25.2921080  68.5134630  48.8510850  25.0512440  68.7809190  47.9641370
  26.2323720  68.6840360  48.9061710  36.5525240  70.5329010  49.6521490
  36.0583520  70.9297880  48.9348620  35.9438530  69.9078220  50.0458770
  20.6571320  53.3131640  52.3598710  21.2054310  53.1319690  51.5964820
  20.7226630  52.5225750  52.8955020  21.4303080  69.9037290  50.3698910
  20.8363400  69.7721990  51.1088950  21.4226920  69.0675430  49.9041010
  34.2364690  71.1752430  46.9308230  33.7767660  71.9268240  46.5566250
  33.6077150  70.4558900  46.8723030  21.0615310  67.2695670  49.3206950
  20.3349370  66.6500960  49.2532900  21.1224460  67.6636280  48.4505030
  24.6660410  69.4840670  46.1056360  25.1825430  68.8728030  45.5804620
  25.3157790  69.9869450  46.5967370  27.4055910  70.3749160  46.9325340
  27.6933720  70.1203460  46.0558350  27.9179130  69.8226520  47.5230910
  19.3445310  70.5870060  42.5303710  19.1767350  69.9540740  43.2285600
  18.4779820  70.7929460  42.1797900  19.9673330  54.4186840  40.0335570
  20.7252690  54.5315720  39.4599600  19.5050500  55.2556040  39.9879000
  20.9508010  69.2803290  39.9753850  20.4255630  69.6611320  39.2715810
  20.8752590  69.9054060  40.6963560  27.4728270  71.2965260  54.2993540
  28.3995580  71.0609530  54.3429500  27.4578700  72.1237260  53.8179570
  35.7073330  70.8390830  41.2967790  35.8825520  70.1528570  40.6528710
  35.0094900  71.3637880  40.9044460  23.5500980  71.2285670  38.8503100
  24.2819800  70.9444950  38.3026990  23.8094650  70.9898950  39.7402480
  22.7115770  67.3450400  38.8549430  22.0824650  67.8135500  39.4035260
  22.8263600  66.4999620  39.2895620  34.0405830  70.5235120  54.1234580
  34.8331150  70.0284350  53.9160540  34.3338980  71.2025260  54.7310190
  28.2983530  63.1735080  26.8859900  27.5225630  62.6935520  27.1758470
  28.9496460  62.4940730  26.7116060  22.3149360  63.4854890  27.7635660
  21.4834240  63.2303600  28.1632170  22.9230340  63.5565660  28.4993580
  32.3190960  67.5795270  25.6659030  31.8572490  66.8082510  25.9946200
  33.1316510  67.6061340  26.1711480  22.2950620  67.5194980  27.9593680
  22.5978660  66.6292720  27.7803900  23.0394210  68.0765200  27.7315930
  20.7241310  58.4456780  21.5478050  19.8358010  58.7872750  21.4457930
  21.0082500  58.2457100  20.6558880  18.6874320  61.0462430  27.4317750
  19.2590430  60.2784630  27.4321390  18.6875860  61.3451190  26.5224360
  28.5454270  69.8653280  25.2863020  27.9265710  70.3210780  24.7157460
  29.4006050  70.0204740  24.8852720  27.7392520  65.8492270  26.8930060
  27.6700800  64.9082210  26.7319190  28.5012380  65.9393680  27.4652630
  19.9299190  56.4546790  29.2186680  19.7502030  55.5572540  29.4989440
  19.5279270  57.0018660  29.8933630  28.7697690  58.6562650  27.1198990
  29.1462510  57.7834530  27.0072660  28.6717200  58.9921350  26.2289430
  22.9002700  57.0288280  22.5816430  23.0069450  57.9292010  22.8885190
  21.9895060  56.9806250  22.2911080  20.5485860  58.9507290  27.8269020
  21.2295970  59.2145660  28.4456420  20.2333910  58.1108160  28.1607030
  24.7410430  59.9974650  26.9141610  25.2488650  60.4955620  27.5546630
  25.2723670  59.2209850  26.7380970  23.0246530  54.6373210  31.1805030
  23.0264970  55.1545600  30.3750930  22.1950840  54.1603390  31.1574960
  29.4117620  64.7492520  22.6794930  28.7934890  65.2141970  22.1157650
  29.9240870  65.4420000  23.0964440  24.2749380  64.2768390  29.3578530
  23.9418760  64.9037310  29.9999600  24.4516060  64.8030270  28.5780200
  22.7061860  56.3483170  29.1875480  23.0478670  57.1925220  28.8929350
  21.7677670  56.4966910  29.3040820  23.4868480  66.2449190  31.1727710
  24.1042480  66.9200270  30.8912160  22.6261600  66.6537170  31.0815210
  18.7800820  65.4349050  20.0534560  18.4028800  65.9236150  19.3219460
  19.0373890  66.1074330  20.6841090  34.4046070  67.7088600  29.0882350
  33.7209590  68.3787710  29.0799020  34.9440360  67.9069250  28.3227210
  26.3889750  53.8365440  25.5120070  26.6964730  53.2812330  24.7955570
  25.4590450  53.9709900  25.3293060  31.9404810  69.5532730  27.8027530
  31.9531970  69.1495020  26.9349790  31.3880030  70.3280020  27.6988960
  31.3390250  64.4562570  29.1310140  31.7559040  64.2422680  28.2963600
  32.0630070  64.7135360  29.7018760  28.7770510  61.9014270  22.2480190
  27.8499790  61.8351650  22.4768660  28.9295330  62.8394400  22.1335430
  28.7639590  58.1731270  19.2447350  27.8243260  58.3345230  19.3299810
  29.0822850  58.8916950  18.6983340  24.3827150  62.4279010  25.0299920
  23.9784150  61.7156260  24.5345820  24.4690270  62.0832250  25.9187960
  24.8508850  66.1146570  27.1939130  24.5537140  65.5092040  26.5146910
  25.8008670  66.1523880  27.0828490  23.0955770  59.2022220  28.8098960
  23.6470360  59.3117560  28.0352210  23.6099280  59.5759820  29.5254190
  32.9394460  69.6878440  30.8562230  32.4625020  70.4950630  30.6634840
  32.2556250  69.0356770  31.0088440  23.9427280  65.8528260  33.8446930
  23.0455810  66.0768230  34.0920330  23.9680150  65.9763200  32.8958330
  22.7698500  62.7241580  32.4204300  22.6306270  63.5964380  32.7891700
  21.8879860  62.3814390  32.2752240  29.0927880  67.6417450  23.7269430
  29.5323790  68.3841780  23.3124820  29.0314770  67.8844020  24.6508390
  24.5678850  68.6663280  34.6289450  24.5394280  69.0706230  33.7617880
  24.4043820  67.7373640  34.4661050  34.5649640  53.9564190  18.0729230
  34.2522300  54.0491020  18.9728300  35.3262110  54.5345220  18.0226660
  21.0831780  61.3223990  22.5306570  20.9629380  62.0486080  21.9187840
  20.7732670  60.5526900  22.0534480  36.5193670  69.4490380  35.9253620
  36.9953390  69.9273270  36.6042700  37.1400830  69.3807870  35.1999120
  18.7217150  64.4939130  28.3375210  18.7997570  64.6287900  27.3930930
  19.3358830  63.7855020  28.5303330  19.9664780  66.1939320  24.7481390
  19.5592860  66.3353910  23.8934990  20.8577790  65.9099480  24.5452600
  35.9226920  66.6403230  33.0853630  36.0489980  66.4015110  32.1670810
  35.9648300  65.8087770  33.5575710  29.7843660  70.3431230  31.6548440
  30.2988330  70.2539240  32.4570870  28.9412740  70.6890930  31.9476350
  31.7598060  70.6286570  21.0832440  31.5999200  70.3389510  21.9814270
  31.5944770  69.8526700  20.5477670  24.2386440  70.4085100  22.8604060
  24.0628920  69.4920640  22.6471860  23.3842180  70.7672390  23.1001860
  31.4624190  68.1374130  19.6430440  30.7689350  68.1351420  18.9832720
  32.2047050  67.7133450  19.2124610  31.0274120  69.7636840  23.7178930
  31.4831070  68.9826220  24.0317550  31.3666640  70.4743660  24.2620110
  18.7776670  65.5353300  30.8769670  18.9407710  65.0658660  30.0589040
  19.2429120  65.0276860  31.5418510  23.5495440  54.6659060  25.9130240
  23.1063590  55.4468600  25.5814760  24.1080430  54.9888950  26.6201180
  26.6654260  54.2869760  20.7936070  26.0408440  54.2829630  21.5189380
  26.5784380  53.4200720  20.3972040  25.5871340  55.2106390  27.7719840
  25.8843670  56.1169220  27.6911860  26.1356900  54.7225170  27.1579410
  23.3409660  59.7892630  23.6411490  23.1150580  59.5729800  24.5458110
  22.5602190  60.2221090  23.2957460  25.7808870  60.6878210  34.3071760
  25.6852470  59.7472940  34.1572160  26.6240850  60.9093280  33.9119830
  29.1772290  58.4319540  24.2705420  29.5701860  58.7491740  23.4574110
  29.5389140  57.5531420  24.3849940  20.9119410  57.0991880  32.4605540
  20.5182800  57.9467090  32.6678320  20.2237810  56.4618250  32.6514180
  18.2136460  55.0220340  26.4935620  17.9249510  55.5923200  27.2060600
  18.9582220  54.5424790  26.8566850  18.4006690  58.9640460  17.7038340
  18.3181360  59.9071220  17.8453330  18.0489750  58.8215370  16.8250690
  26.2004820  57.6979490  26.7708690  26.2040880  57.2569440  25.9213230
  27.0955940  58.0196820  26.8780510  22.0507200  57.5805980  25.7302900
  21.7107250  58.0581210  26.4869950  21.2884520  57.1271100  25.3704000
  26.2624970  58.6991570  19.7615450  26.3837790  58.6578050  20.7101270
  25.8773480  59.5615720  19.6062180  30.2253340  56.4758970  27.7779140
  30.2426080  56.9267620  28.6220990  29.9768920  55.5764610  27.9912580
  25.2746470  61.0092710  19.1598750  24.7063370  60.5610960  18.5334660
  25.9835470  61.3685490  18.6263900  20.3515650  64.9104730  33.0365480
  19.9670440  64.2698400  33.6348440  20.6627840  65.6140850  33.6060210
  26.5012790  61.7581270  28.5174100  26.8682920  61.2839840  29.2635440
  26.3117850  62.6322840  28.8582440  19.3653280  56.5024960  24.6467570
  19.0800200  56.1380630  25.4846190  19.3032140  55.7705420  24.0330710
  24.2912160  60.7989910  30.8358310  23.9869230  61.6781890  31.0608670
  25.2458620  60.8589700  30.8715750  22.8193950  65.0050900  21.4325160
  22.0456210  64.4648520  21.2723880  23.5488580  64.4857510  21.0942920
  29.0391870  55.3954220  21.3680940  28.2256480  54.8967390  21.2926250
  28.8453820  56.2352470  20.9517290  28.9600730  64.0725320  33.1120550
  28.8938040  63.1520990  32.8578140  28.3305870  64.1700760  33.8265190
  22.8631350  64.6731280  25.0703970  23.3810020  63.8699540  25.0160860
  22.4115370  64.6110420  25.9120800  27.7500850  65.9397560  20.3431270
  28.0916550  66.6839790  19.8474590  26.9213560  66.2528680  20.7056100
  20.3475890  61.6392650  31.9829670  19.9890830  62.3046500  32.5703010
  20.0530450  60.8076200  32.3542290  23.5489010  62.0976890  34.8669220
  23.2489150  62.2434070  33.9697040  24.3200250  61.5382180  34.7742610
  28.8917460  66.8945890  32.8624350  28.9062000  65.9626850  32.6443260
  28.1842560  66.9805650  33.5014120  35.0541780  67.9327970  21.8605090
  34.4117940  67.2783590  22.1348810  34.6672440  68.3383060  21.0845760
  30.6328260  65.2613400  25.7076780  30.9852080  64.6641530  25.0478150
  29.7490590  64.9357630  25.8785030  26.7191540  66.0211090  23.1147190
  27.4062670  66.5680300  23.4954780  25.9323960  66.5651820  23.1496800
  18.8583940  61.6383910  18.6064270  19.7278790  61.9208710  18.8900190
  18.3674260  62.4519780  18.4913080  26.0218750  63.0257120  22.7272550
  26.4781530  63.8362370  22.9532740  25.6706960  62.7080260  23.5591040
  28.3251360  68.5363460  29.9564850  28.9693580  68.7422840  30.6338270
  28.6880800  67.7751860  29.5035700  21.9230530  53.3694770  23.1995070
  21.7945160  53.3612670  24.1479990  21.0992550  53.7077860  22.8486080
  29.5983440  66.5395810  28.6742300  30.2405670  65.8388970  28.7874470
  30.1232790  67.3194250  28.4939190  33.4439160  66.8244430  18.3981440
  33.2176740  66.1074870  18.9906080  33.0535360  66.5756870  17.5603190
  31.3721060  67.3390710  31.8778360  31.7077300  67.9257400  32.5556280
  30.4521400  67.2083420  32.1076150  19.2255190  70.8511290  19.1725900
  19.5852830  71.4500630  18.5183170  19.0847530  71.3971180  19.9460930
  18.9224460  55.1285890  32.6601770  18.2082980  55.3282810  33.2654380
  19.3419500  54.3525460  33.0316570  19.2097050  69.1166150  33.6468300
  19.3188170  68.1760890  33.5063690  18.5577610  69.3820900  32.9982030
  27.2009640  67.3882040  35.0466420  26.8806510  66.6691280  35.5912110
  26.5268000  68.0637110  35.1202480  25.2423810  68.2342490  19.9899570
  25.2333910  68.9672180  19.3744080  24.3222170  67.9874070  20.0826530
  20.8430450  63.4557380  20.7346330  20.2358400  64.1956280  20.7441630
  21.3179800  63.5456740  19.9084530  28.2283410  68.2970730  18.6524760
  28.3295390  68.0934720  17.7226740  27.3285150  68.0429010  18.8572540
  25.7509300  58.8551090  22.6348660  25.0425450  59.3237430  23.0762270
  26.0353780  58.1973100  23.2693850  27.3765230  60.2747790  30.6341190
  27.8750480  60.7493610  31.2993040  27.5188180  59.3511310  30.8411220
  29.7824730  55.5801750  24.0744450  29.6592510  55.5987880  23.1253960
  30.7309290  55.6280690  24.1942850  26.8701520  70.8157050  23.3472430
  27.1243020  70.7778440  22.4251800  25.9214000  70.6890380  23.3400680
  23.9544320  57.1636170  20.0099370  24.8034850  57.6006320  19.9439560
  23.5875590  57.4756430  20.8371430  22.8535740  63.4168530  18.4834900
  23.6199010  63.3049890  19.0460330  22.9310430  62.7206500  17.8311670
  21.5482500  60.8493600  19.1667790  21.6286090  59.9021110  19.2785190
  22.4402250  61.1800480  19.2728450  34.8779680  68.9057780  26.5985200
  35.0027100  69.7288950  27.0709010  35.7445240  68.6948510  26.2509350
  22.3497210  70.9988990  26.2702330  23.0859690  70.4504450  26.5410900
  22.7338130  71.8645000  26.1308320  19.2342690  67.0662560  22.1443840
  18.3082470  67.3083700  22.1349250  19.6999120  67.8936820  22.0228590
  21.3555490  70.1835060  35.4587910  22.1568220  70.5047110  35.8723310
  20.8407310  69.8230640  36.1807820  25.4599520  70.1719300  18.0927900
  26.2528130  70.4608130  17.6409690  24.9403870  69.7411470  17.4140380
  30.1920120  66.2914930  35.4063320  29.5858280  66.3146530  34.6659070
  29.8874230  65.5597970  35.9430570  31.6220490  70.0195220  34.0172730
  32.5742240  69.9353240  33.9672970  31.4748710  70.6836930  34.6906520
  34.5129690  69.3989430  19.5164640  34.2271200  68.9854570  18.7018820
  34.3149240  70.3277140  19.3965160  19.0753300  62.6708520  34.4023960
  19.5792320  62.0915800  34.9740190  18.3360720  62.9548750  34.9400330
  25.9776920  65.3922710  17.9570250  25.8727560  64.7775060  18.6831630
  25.8101140  64.8688600  17.1733260  26.1291240  64.0779510  33.9359480
  25.3636910  64.6464510  33.8514150  26.3107200  63.7855720  33.0427710
  33.2714590  65.8084840  34.4934500  34.0124060  66.1460600  33.9901960
  32.5087270  65.9776900  33.9404270  21.1076380  60.8138110  35.2974030
  21.1481720  60.5151980  36.2059260  21.9621880  61.2145720  35.1381550
  24.8854770  63.4133660  20.4577540  25.3071190  63.2473530  21.3008930
  25.0105610  62.6033890  19.9632680  23.0482190  59.3930210  33.2648520
  22.5178650  58.9021160  32.6371860  23.7170260  59.8214410  32.7306450
  27.3982410  62.4371270  17.7054640  27.9188070  61.7220290  17.3395790
  28.0450810  63.0757140  18.0055150  31.9460250  63.8599670  33.0289710
  32.3601270  64.0144750  33.8780130  31.0111250  63.9854890  33.1915490
  23.5354490  56.3592580  33.3445810  23.4411360  55.7413330  32.6196680
  22.9551880  57.0858870  33.1175720  26.3015930  54.9165820  30.3773200
  25.8533230  54.9390080  29.5318750  25.6681130  54.5184840  30.9743500
  26.7075480  63.8120150  30.9985640  27.1263590  64.6552880  30.8261880
  25.7884110  63.9492190  30.7692420  29.0439380  61.5436330  32.3823480
  29.1635590  60.9477470  33.1218320  29.9033380  61.5806020  31.9624780
  23.7813670  59.4866890  17.4035700  23.5802730  58.6234250  17.7649040
  23.6105720  59.4000250  16.4657300  24.5582900  70.1173160  32.1143370
  24.0203990  70.8419220  31.7952070  24.8116860  69.6403500  31.3240710
  25.8108150  58.0857680  33.6399300  26.4007840  57.7773530  34.3277120
  24.9928390  57.6137430  33.7959200  31.2601980  54.2975120  19.9322580
  31.5404270  53.4543020  20.2882000  30.4867710  54.5298230  20.4461330
  22.5796470  56.5867510  17.3913580  22.8822370  56.5934940  16.4832730
  23.3191060  56.2365370  17.8881240  27.4145110  71.3524370  32.3730020
  27.3403810  72.2559510  32.6802390  26.5123950  71.0336270  32.3452090
  25.7981400  55.5302130  18.3769780  25.4503400  54.8526120  17.7972230
  25.9994170  55.0691640  19.1913170  27.9630440  70.5182880  19.9956380
  28.8581230  70.8567850  20.0175140  27.9948070  69.7962290  19.3680660
  21.6026600  65.8909930  18.2243380  22.0401470  66.4339600  18.8800960
  22.0874330  65.0656880  18.2339720  18.8172400  68.6798960  25.6763640
  19.1475410  67.8120020  25.4442280  19.2463400  68.8857480  26.5068600
  23.4134320  67.0107970  23.3365610  23.1129860  66.8872940  24.2369520
  23.3071810  66.1516560  22.9281340  19.3062610  69.5469550  28.4145270
  18.8693600  69.7270350  29.2469420  19.8740290  70.3044170  28.2726990
  34.9424790  69.0486550  32.7022580  34.3426780  69.1079110  31.9586500
  35.0718690  68.1091530  32.8319430  36.1826240  66.7904370  18.0392290
  35.3519200  66.8581020  18.5099520  36.3598070  67.6808490  17.7359150
  19.1387040  62.0589780  24.7734150  18.4835880  61.7901420  24.1293850
  19.9764990  61.9494260  24.3236130  33.6276430  65.7738530  30.7998740
  32.8136270  66.2035690  31.0624530  34.0350630  66.3856940  30.1867790
  32.0877480  56.8531070  18.9952640  32.5062360  56.6662050  18.1549300
  31.7813540  56.0010120  19.3055570  20.1762970  62.4442350  29.3137490
  20.5436010  62.3569750  30.1933510  19.6073790  61.6808900  29.2144350
  19.7278970  59.3551440  33.2195910  18.8335020  59.3218200  33.5589620
  20.2676520  59.5538230  33.9847160  18.3525120  59.2688710  20.7159480
  17.4489200  59.5318910  20.5411140  18.8365740  59.5399880  19.9359440
  20.8952330  58.3254250  18.6253860  21.6044030  57.9037470  18.1401140
  20.1792270  58.3929480  17.9937210  20.5426490  54.3793580  17.6656510
  21.2654620  54.9202520  17.9837730  20.8151010  54.1057000  16.7898050
  20.2318680  53.6299770  27.5679130  20.8794870  53.0797150  27.1274290
  20.6520520  53.8842920  28.3894940  36.6695570  55.7154920  17.7071910
  37.5944880  55.5836100  17.4990200  36.6471360  55.7947740  18.6608360
  33.6852480  70.5257130  24.3267010  34.2811550  70.2041700  23.6501430
  33.9430630  70.0528950  25.1180280  19.9850680  53.7855440  30.3104450
  19.6365500  54.2419260  31.0762630  19.6538380  52.8912570  30.3926880
  21.5915050  66.9575040  34.4757640  21.5484680  66.5867950  35.3572100
  21.7226060  67.8952610  34.6159460  25.2921080  68.5134630  30.0767360
  25.0512440  68.7809190  29.1897880  26.2323720  68.6840360  30.1318220
  36.5525240  70.5329010  30.8778000  36.0583520  70.9297880  30.1605130
  35.9438530  69.9078220  31.2715280  20.6571320  53.3131640  33.5855220
  21.2054310  53.1319690  32.8221330  20.7226630  52.5225750  34.1211530
  21.4303080  69.9037290  31.5955420  20.8363400  69.7721990  32.3345460
  21.4226920  69.0675430  31.1297520  34.2364690  71.1752430  28.1564740
  33.7767660  71.9268240  27.7822760  33.6077150  70.4558900  28.0979540
  21.0615310  67.2695670  30.5463460  20.3349370  66.6500960  30.4789410
  21.1224460  67.6636280  29.6761540  24.6660410  69.4840670  27.3312870
  25.1825430  68.8728030  26.8061130  25.3157790  69.9869450  27.8223880
  27.4055910  70.3749160  28.1581850  27.6933720  70.1203460  27.2814860
  27.9179130  69.8226520  28.7487420  19.3445310  70.5870060  23.7560220
  19.1767350  69.9540740  24.4542110  18.4779820  70.7929460  23.4054410
  19.9673330  54.4186840  21.2592080  20.7252690  54.5315720  20.6856110
  19.5050500  55.2556040  21.2135510  26.5087140  56.5326110  24.2494390
  25.6961650  56.1583000  23.9090270  27.0128780  55.7771190  24.5515580
  34.1546720  53.5990120  20.7617740  34.3497350  54.4973570  21.0285170
  33.3676590  53.3677200  21.2550690  20.9508010  69.2803290  21.2010360
  20.4255630  69.6611320  20.4972320  20.8752590  69.9054060  21.9220070
  22.3398480  54.9450890  19.7994050  22.8691240  54.1580690  19.6702000
  22.9726800  55.6242080  20.0329580  24.5336320  54.6826030  22.8539440
  23.9039060  53.9813340  23.0209570  23.9941460  55.4430160  22.6372600
  27.4728270  71.2965260  35.5250050  28.3995580  71.0609530  35.5686010
  27.4578700  72.1237260  35.0436080  35.7073330  70.8390830  22.5224300
  35.8825520  70.1528570  21.8785220  35.0094900  71.3637880  22.1300970
  24.6591880  53.9610010  35.2891930  24.3776150  54.4643610  34.5252750
  25.0411580  53.1631760  34.9234060  23.5500980  71.2285670  20.0759610
  24.2819800  70.9444950  19.5283500  23.8094650  70.9898950  20.9658990
  22.7115770  67.3450400  20.0805940  22.0824650  67.8135500  20.6291770
  22.8263600  66.4999620  20.5152130  34.0405830  70.5235120  35.3491090
  34.8331150  70.0284350  35.1417050  34.3338980  71.2025260  35.9566700
  30.1665490  61.3956060   6.2307140  30.0859540  60.4810670   5.9598850
  29.7529910  61.8923130   5.5246850  28.2983530  63.1735080   8.1116410
  27.5225630  62.6935520   8.4014980  28.9496460  62.4940730   7.9372570
  22.3149360  63.4854890   8.9892170  21.4834240  63.2303600   9.3888680
  22.9230340  63.5565660   9.7250090  32.3190960  67.5795270   6.8915540
  31.8572490  66.8082510   7.2202710  33.1316510  67.6061340   7.3967990
  22.2950620  67.5194980   9.1850190  22.5978660  66.6292720   9.0060410
  23.0394210  68.0765200   8.9572440  20.7241310  58.4456780   2.7734560
  19.8358010  58.7872750   2.6714440  21.0082500  58.2457100   1.8815390
  18.6874320  61.0462430   8.6574260  19.2590430  60.2784630   8.6577900
  18.6875860  61.3451190   7.7480870  28.5454270  69.8653280   6.5119530
  27.9265710  70.3210780   5.9413970  29.4006050  70.0204740   6.1109230
  27.7392520  65.8492270   8.1186570  27.6700800  64.9082210   7.9575700
  28.5012380  65.9393680   8.6909140  19.9299190  56.4546790  10.4443190
  19.7502030  55.5572540  10.7245950  19.5279270  57.0018660  11.1190140
  28.7697690  58.6562650   8.3455500  29.1462510  57.7834530   8.2329170
  28.6717200  58.9921350   7.4545940  22.9002700  57.0288280   3.8072940
  23.0069450  57.9292010   4.1141700  21.9895060  56.9806250   3.5167590
  32.5521810  56.1513090   5.2783840  33.3731430  55.6609660   5.3209320
  32.5855890  56.7410750   6.0315680  20.5485860  58.9507290   9.0525530
  21.2295970  59.2145660   9.6712930  20.2333910  58.1108160   9.3863540
  24.7410430  59.9974650   8.1398120  25.2488650  60.4955620   8.7803140
  25.2723670  59.2209850   7.9637480  36.8421360  58.1679840  11.8427470
  36.1373530  58.5561550  11.3242580  37.1079280  58.8630130  12.4448400
  23.0246530  54.6373210  12.4061540  23.0264970  55.1545600  11.6007440
  22.1950840  54.1603390  12.3831470  29.4117620  64.7492520   3.9051440
  28.7934890  65.2141970   3.3414160  29.9240870  65.4420000   4.3220950
  24.2749380  64.2768390  10.5835040  23.9418760  64.9037310  11.2256110
  24.4516060  64.8030270   9.8036710  32.7883290  58.0913470   8.0511380
  32.0838860  58.3798360   8.6314490  33.1495450  58.9013580   7.6910940
  22.7061860  56.3483170  10.4131990  23.0478670  57.1925220  10.1185860
  21.7677670  56.4966910  10.5297330  23.4868480  66.2449190  12.3984220
  24.1042480  66.9200270  12.1168670  22.6261600  66.6537170  12.3071720
  34.4046070  67.7088600  10.3138860  33.7209590  68.3787710  10.3055530
  34.9440360  67.9069250   9.5483720  35.8570210  57.5368260   8.4420590
  34.9095120  57.5707240   8.5736020  36.1820200  58.3507210   8.8269950
  26.3889750  53.8365440   6.7376580  26.6964730  53.2812330   6.0212080
  25.4590450  53.9709900   6.5549570  31.9404810  69.5532730   9.0284040
  31.9531970  69.1495020   8.1606300  31.3880030  70.3280020   8.9245470
  33.2350230  66.2748950   4.1174210  33.1246560  65.3323280   4.2423630
  33.2318480  66.6364590   5.0036970  31.3390250  64.4562570  10.3566650
  31.7559040  64.2422680   9.5220110  32.0630070  64.7135360  10.9275270
  28.7770510  61.9014270   3.4736700  27.8499790  61.8351650   3.7025170
  28.9295330  62.8394400   3.3591940  35.2852350  62.8549790  10.4482890
  34.4570980  62.9242880   9.9733020  35.8802830  63.4404100   9.9798720
  32.8067800  63.4634570   3.9771950  32.1880220  63.1254120   3.3298250
  32.7892250  62.8194330   4.6851140  32.2494360  59.6419110  11.3937760
  31.8365540  60.4672820  11.6477750  31.5170310  59.0564150  11.2014120
  24.3827150  62.4279010   6.2556430  23.9784150  61.7156260   5.7602330
  24.4690270  62.0832250   7.1444470  24.8508850  66.1146570   8.4195640
  24.5537140  65.5092040   7.7403420  25.8008670  66.1523880   8.3085000
  23.0955770  59.2022220  10.0355470  23.6470360  59.3117560   9.2608720
  23.6099280  59.5759820  10.7510700  32.9394460  69.6878440  12.0818740
  32.4625020  70.4950630  11.8891350  32.2556250  69.0356770  12.2344950
  23.9427280  65.8528260  15.0703440  23.0455810  66.0768230  15.3176840
  23.9680150  65.9763200  14.1214840  22.7698500  62.7241580  13.6460810
  22.6306270  63.5964380  14.0148210  21.8879860  62.3814390  13.5008750
  29.0927880  67.6417450   4.9525940  29.5323790  68.3841780   4.5381330
  29.0314770  67.8844020   5.8764900  24.5678850  68.6663280  15.8545960
  24.5394280  69.0706230  14.9874390  24.4043820  67.7373640  15.6917560
  21.0831780  61.3223990   3.7563080  20.9629380  62.0486080   3.1444350
  20.7732670  60.5526900   3.2790990  36.5193670  69.4490380  17.1510130
  36.9953390  69.9273270  17.8299210  37.1400830  69.3807870  16.4255630
  18.7217150  64.4939130   9.5631720  18.7997570  64.6287900   8.6187440
  19.3358830  63.7855020   9.7559840  19.9664780  66.1939320   5.9737900
  19.5592860  66.3353910   5.1191500  20.8577790  65.9099480   5.7709110
  35.9226920  66.6403230  14.3110140  36.0489980  66.4015110  13.3927320
  35.9648300  65.8087770  14.7832220  29.7843660  70.3431230  12.8804950
  30.2988330  70.2539240  13.6827380  28.9412740  70.6890930  13.1732860
  31.7598060  70.6286570   2.3088950  31.5999200  70.3389510   3.2070780
  31.5944770  69.8526700   1.7734180  24.2386440  70.4085100   4.0860570
  24.0628920  69.4920640   3.8728370  23.3842180  70.7672390   4.3258370
  31.0274120  69.7636840   4.9435440  31.4831070  68.9826220   5.2574060
  31.3666640  70.4743660   5.4876620  35.7750930  58.6935690  15.2759880
  35.1595200  59.2015360  14.7475340  35.4547350  57.7934020  15.2185820
  18.7776670  65.5353300  12.1026180  18.9407710  65.0658660  11.2845550
  19.2429120  65.0276860  12.7675020  23.5495440  54.6659060   7.1386750
  23.1063590  55.4468600   6.8071270  24.1080430  54.9888950   7.8457690
  27.8365250  57.5327580  12.7422070  27.3744620  57.7410600  13.5542010
  27.4343360  56.7186930  12.4392740  32.8369760  58.7536530  13.8718730
  31.9863350  58.4542280  14.1927800  32.6771550  58.9978540  12.9602550
  29.9319470  60.2538280  15.9717520  30.2572880  59.4202030  15.6319750
  30.7199800  60.7766800  16.1195850  25.5871340  55.2106390   8.9976350
  25.8843670  56.1169220   8.9168370  26.1356900  54.7225170   8.3835920
  23.3409660  59.7892630   4.8668000  23.1150580  59.5729800   5.7714620
  22.5602190  60.2221090   4.5213970  30.5707420  59.7956000   3.4658650
  29.9716310  60.5191800   3.2822270  31.1187030  59.7332780   2.6835100
  25.7808870  60.6878210  15.5328270  25.6852470  59.7472940  15.3828670
  26.6240850  60.9093280  15.1376340  29.1772290  58.4319540   5.4961930
  29.5701860  58.7491740   4.6830620  29.5389140  57.5531420   5.6106450
  20.9119410  57.0991880  13.6862050  20.5182800  57.9467090  13.8934830
  20.2237810  56.4618250  13.8770690  27.4864460  57.1826850  16.7558790
  26.7962780  56.9899050  17.3904880  28.2296760  57.4661490  17.2883090
  18.2136460  55.0220340   7.7192130  17.9249510  55.5923200   8.4317110
  18.9582220  54.5424790   8.0823360  29.7627430  61.0225290   9.5912710
  29.0308550  61.5312100   9.9402810  29.3651770  60.2055270   9.2901490
  26.2004820  57.6979490   7.9965200  26.2040880  57.2569440   7.1469740
  27.0955940  58.0196820   8.1037020  22.0507200  57.5805980   6.9559410
  21.7107250  58.0581210   7.7126460  21.2884520  57.1271100   6.5960510
  30.2253340  56.4758970   9.0035650  30.2426080  56.9267620   9.8477500
  29.9768920  55.5764610   9.2169090  33.6524090  53.8891150  14.8422030
  33.9769860  53.1580810  15.3680010  33.6880600  53.5704790  13.9403020
  20.3515650  64.9104730  14.2621990  19.9670440  64.2698400  14.8604950
  20.6627840  65.6140850  14.8316720  26.5012790  61.7581270   9.7430610
  26.8682920  61.2839840  10.4891950  26.3117850  62.6322840  10.0838950
  19.3653280  56.5024960   5.8724080  19.0800200  56.1380630   6.7102700
  19.3032140  55.7705420   5.2587220  24.2912160  60.7989910  12.0614820
  23.9869230  61.6781890  12.2865180  25.2458620  60.8589700  12.0972260
  22.8193950  65.0050900   2.6581670  22.0456210  64.4648520   2.4980390
  23.5488580  64.4857510   2.3199430  33.5781930  64.0016260   8.4508060
  34.2981050  64.4971550   8.0604170  33.3763750  63.3234150   7.8061930
  29.0391870  55.3954220   2.5937450  28.2256480  54.8967390   2.5182760
  28.8453820  56.2352470   2.1773800  28.9600730  64.0725320  14.3377060
  28.8938040  63.1520990  14.0834650  28.3305870  64.1700760  15.0521700
  22.8631350  64.6731280   6.2960480  23.3810020  63.8699540   6.2417370
  22.4115370  64.6110420   7.1377310  20.3475890  61.6392650  13.2086180
  19.9890830  62.3046500  13.7959520  20.0530450  60.8076200  13.5798800
  23.5489010  62.0976890  16.0925730  23.2489150  62.2434070  15.1953550
  24.3200250  61.5382180  15.9999120  28.8917460  66.8945890  14.0880860
  28.9062000  65.9626850  13.8699770  28.1842560  66.9805650  14.7270630
  35.1028670  63.5353230  13.4349440  34.3776860  64.1282010  13.2378830
  35.6304130  63.5276770  12.6362810  35.0541780  67.9327970   3.0861600
  34.4117940  67.2783590   3.3605320  34.6672440  68.3383060   2.3102270
  30.6328260  65.2613400   6.9333290  30.9852080  64.6641530   6.2734660
  29.7490590  64.9357630   7.1041540  26.7191540  66.0211090   4.3403700
  27.4062670  66.5680300   4.7211290  25.9323960  66.5651820   4.3753310
  26.0218750  63.0257120   3.9529060  26.4781530  63.8362370   4.1789250
  25.6706960  62.7080260   4.7847550  28.3251360  68.5363460  11.1821360
  28.9693580  68.7422840  11.8594780  28.6880800  67.7751860  10.7292210
  21.9230530  53.3694770   4.4251580  21.7945160  53.3612670   5.3736500
  21.0992550  53.7077860   4.0742590  29.5983440  66.5395810   9.8998810
  30.2405670  65.8388970  10.0130980  30.1232790  67.3194250   9.7195700
  31.3721060  67.3390710  13.1034870  31.7077300  67.9257400  13.7812790
  30.4521400  67.2083420  13.3332660  18.9224460  55.1285890  13.8858280
  18.2082980  55.3282810  14.4910890  19.3419500  54.3525460  14.2573080
  19.2097050  69.1166150  14.8724810  19.3188170  68.1760890  14.7320200
  18.5577610  69.3820900  14.2238540  27.2009640  67.3882040  16.2722930
  26.8806510  66.6691280  16.8168620  26.5268000  68.0637110  16.3458990
  30.4163240  57.6208200  11.6359730  30.7844060  56.8003410  11.9639300
  29.5561440  57.6810090  12.0515380  33.7825270  56.5765140   2.4447290
  33.1538430  56.6810810   1.7305520  33.2877190  56.7961920   3.2341170
  25.7509300  58.8551090   3.8605170  25.0425450  59.3237430   4.3018780
  26.0353780  58.1973100   4.4950360  27.3765230  60.2747790  11.8597700
  27.8750480  60.7493610  12.5249550  27.5188180  59.3511310  12.0667730
  29.7824730  55.5801750   5.3000960  29.6592510  55.5987880   4.3510470
  30.7309290  55.6280690   5.4199360  26.8701520  70.8157050   4.5728940
  27.1243020  70.7778440   3.6508310  25.9214000  70.6890380   4.5657190
  34.5832090  56.4915750  12.7026090  34.0805690  57.2321150  13.0419900
  35.3988750  56.8799750  12.3862880  32.8754100  61.7348930   6.1487450
  31.9344240  61.7499160   6.3235140  33.1898170  60.9484890   6.5947750
  34.8779680  68.9057780   7.8241710  35.0027100  69.7288950   8.2965520
  35.7445240  68.6948510   7.4765860  22.3497210  70.9988990   7.4958840
  23.0859690  70.4504450   7.7667410  22.7338130  71.8645000   7.3564830
  19.2342690  67.0662560   3.3700350  18.3082470  67.3083700   3.3605760
  19.6999120  67.8936820   3.2485100  21.3555490  70.1835060  16.6844420
  22.1568220  70.5047110  17.0979820  20.8407310  69.8230640  17.4064330
  30.1920120  66.2914930  16.6319830  29.5858280  66.3146530  15.8915580
  29.8874230  65.5597970  17.1687080  31.6220490  70.0195220  15.2429240
  32.5742240  69.9353240  15.1929480  31.4748710  70.6836930  15.9163030
  19.0753300  62.6708520  15.6280470  19.5792320  62.0915800  16.1996700
  18.3360720  62.9548750  16.1656840  26.1291240  64.0779510  15.1615990
  25.3636910  64.6464510  15.0770660  26.3107200  63.7855720  14.2684220
  33.2714590  65.8084840  15.7191010  34.0124060  66.1460600  15.2158470
  32.5087270  65.9776900  15.1660780  21.1076380  60.8138110  16.5230540
  21.1481720  60.5151980  17.4315770  21.9621880  61.2145720  16.3638060
  23.0482190  59.3930210  14.4905030  22.5178650  58.9021160  13.8628370
  23.7170260  59.8214410  13.9562960  31.9460250  63.8599670  14.2546220
  32.3601270  64.0144750  15.1036640  31.0111250  63.9854890  14.4172000
  23.5354490  56.3592580  14.5702320  23.4411360  55.7413330  13.8453190
  22.9551880  57.0858870  14.3432230  26.3015930  54.9165820  11.6029710
  25.8533230  54.9390080  10.7575260  25.6681130  54.5184840  12.2000010
  26.7075480  63.8120150  12.2242150  27.1263590  64.6552880  12.0518390
  25.7884110  63.9492190  11.9948930  29.0439380  61.5436330  13.6079990
  29.1635590  60.9477470  14.3474830  29.9033380  61.5806020  13.1881290
  31.3827280  62.0973520  12.1842500  30.8562500  62.6216140  11.5807640
  31.7258620  62.7300910  12.8152230  24.5582900  70.1173160  13.3399880
  24.0203990  70.8419220  13.0208580  24.8116860  69.6403500  12.5497220
  25.8108150  58.0857680  14.8655810  26.4007840  57.7773530  15.5533630
  24.9928390  57.6137430  15.0215710  30.6301580  57.7023490  15.0988830
  29.9417100  57.0405030  15.0338820  31.3507600  57.2561760  15.5437290
  27.4145110  71.3524370  13.5986530  27.3403810  72.2559510  13.9058900
  26.5123950  71.0336270  13.5708600  18.8172400  68.6798960   6.9020150
  19.1475410  67.8120020   6.6698790  19.2463400  68.8857480   7.7325110
  23.4134320  67.0107970   4.5622120  23.1129860  66.8872940   5.4626030
  23.3071810  66.1516560   4.1537850  19.3062610  69.5469550   9.6401780
  18.8693600  69.7270350  10.4725930  19.8740290  70.3044170   9.4983500
  34.9424790  69.0486550  13.9279090  34.3426780  69.1079110  13.1843010
  35.0718690  68.1091530  14.0575940  35.6382700  63.5351850   1.7683000
  36.4001610  64.1048500   1.8742690  35.6537070  62.9679050   2.5391310
  19.1387040  62.0589780   5.9990660  18.4835880  61.7901420   5.3550360
  19.9764990  61.9494260   5.5492640  36.6442670  64.3901950   6.6124930
  37.0151500  63.6069270   6.2060900  37.2844600  65.0791050   6.4342230
  33.6276430  65.7738530  12.0255250  32.8136270  66.2035690  12.2881040
  34.0350630  66.3856940  11.4124300  35.5867210  61.7655210   3.9184950
  35.2110810  60.9983140   3.4866240  34.8570330  62.1477910   4.4059880
  20.1762970  62.4442350  10.5394000  20.5436010  62.3569750  11.4190020
  19.6073790  61.6808900  10.4400860  34.9766830  60.9126730  13.5524470
  34.7452920  60.6839480  12.6522420  35.2371380  61.8326280  13.5069360
  19.7278970  59.3551440  14.4452420  18.8335020  59.3218200  14.7846130
  20.2676520  59.5538230  15.2103670  33.4154900  56.1383160  16.3304170
  34.2925080  56.1466560  16.7138170  33.4275740  55.4014000  15.7196520
  34.8618170  59.9912700   7.2192190  35.3855650  59.4975350   6.5882360
  35.4477590  60.1263060   7.9639760  35.0407890  60.0752570  10.7411740
  34.0910600  60.0416110  10.8556730  35.2220900  60.9852680  10.5061510
  34.3518140  59.2486050   3.1584600  34.8477260  59.0156920   3.9433480
  34.1534210  58.4097890   2.7422240  20.2318680  53.6299770   8.7935640
  20.8794870  53.0797150   8.3530800  20.6520520  53.8842920   9.6151450
  35.7805300  57.8847000   5.6922280  35.6704580  57.7303040   6.6304550
  36.5412890  57.3567940   5.4497690  34.1271020  53.8241130  12.1505280
  34.7643240  54.4375270  12.5164470  34.2745910  53.8601790  11.2054510
  33.6852480  70.5257130   5.5523520  34.2811550  70.2041700   4.8757940
  33.9430630  70.0528950   6.3436790  19.9850680  53.7855440  11.5360960
  19.6365500  54.2419260  12.3019140  19.6538380  52.8912570  11.6183390
  21.5915050  66.9575040  15.7014150  21.5484680  66.5867950  16.5828610
  21.7226060  67.8952610  15.8415970  25.2921080  68.5134630  11.3023870
  25.0512440  68.7809190  10.4154390  26.2323720  68.6840360  11.3574730
  27.4975500  54.9767320  15.0580380  27.4364390  55.5689150  15.8075790
  28.4375880  54.8693280  14.9130640  30.1350060  54.6337380  14.6972670
  30.7490470  54.9516670  14.0353750  30.6799620  54.1485970  15.3168530
  36.5525240  70.5329010  12.1034510  36.0583520  70.9297880  11.3861640
  35.9438530  69.9078220  12.4971790  20.6571320  53.3131640  14.8111730
  21.2054310  53.1319690  14.0477840  20.7226630  52.5225750  15.3468040
  21.4303080  69.9037290  12.8211930  20.8363400  69.7721990  13.5601970
  21.4226920  69.0675430  12.3554030  30.8758100  53.1969520  11.0241960
  30.0017940  53.5304630  10.8214890  30.7668850  52.7242700  11.8493830
  31.7830080  55.4040390  12.4083680  31.4543440  54.5892150  12.0285410
  32.7312380  55.3610200  12.2849370  34.2364690  71.1752430   9.3821250
  33.7767660  71.9268240   9.0079270  33.6077150  70.4558900   9.3236050
  21.0615310  67.2695670  11.7719970  20.3349370  66.6500960  11.7045920
  21.1224460  67.6636280  10.9018050  24.6660410  69.4840670   8.5569380
  25.1825430  68.8728030   8.0317640  25.3157790  69.9869450   9.0480390
  27.4055910  70.3749160   9.3838360  27.6933720  70.1203460   8.5071370
  27.9179130  69.8226520   9.9743930  28.6232920  54.1139360   9.9634870
  27.8404710  54.5884860  10.2431630  28.3295850  53.2094190   9.8548050
  33.1753990  54.8162460   8.0083960  33.6162080  54.7607560   7.1605560
  32.9061580  55.7320470   8.0794140  35.0392560  54.4477700   6.0192780
  34.9780960  53.5038920   5.8723800  35.8184590  54.5557790   6.5646240
  19.3445310  70.5870060   4.9816730  19.1767350  69.9540740   5.6798620
  18.4779820  70.7929460   4.6310920  19.9673330  54.4186840   2.4848590
  20.7252690  54.5315720   1.9112620  19.5050500  55.2556040   2.4392020
  26.5087140  56.5326110   5.4750900  25.6961650  56.1583000   5.1346780
  27.0128780  55.7771190   5.7772090  31.0112120  53.1968560   6.7133970
  31.6141490  53.7688770   7.1882490  30.2705110  53.7608000   6.4907870
  34.1546720  53.5990120   1.9874250  34.3497350  54.4973570   2.2541680
  33.3676590  53.3677200   2.4807200  20.9508010  69.2803290   2.4266870
  20.4255630  69.6611320   1.7228830  20.8752590  69.9054060   3.1476580
  24.5336320  54.6826030   4.0795950  23.9039060  53.9813340   4.2466080
  23.9941460  55.4430160   3.8629110  27.4728270  71.2965260  16.7506560
  28.3995580  71.0609530  16.7942520  27.4578700  72.1237260  16.2692590
  35.7073330  70.8390830   3.7480810  35.8825520  70.1528570   3.1041730
  35.0094900  71.3637880   3.3557480  24.6591880  53.9610010  16.5148440
  24.3776150  54.4643610  15.7509260  25.0411580  53.1631760  16.1490570
  31.2607340  53.3763590  17.0928910  31.1472790  53.6958200  17.9880430
  32.0777080  53.7776100  16.7966190  34.0405830  70.5235120  16.5747600
  34.8331150  70.0284350  16.3673560  34.3338980  71.2025260  17.1823210
  30.1665490  42.6212570  81.3281100  30.0859540  41.7067180  81.0572810
  29.7529910  43.1179640  80.6220810  28.2983530  44.3991590  83.2090370
  27.5225630  43.9192030  83.4988940  28.9496460  43.7197240  83.0346530
  22.3149360  44.7111400  84.0866130  21.4834240  44.4560110  84.4862640
  22.9230340  44.7822170  84.8224050  32.3190960  48.8051780  81.9889500
  31.8572490  48.0339020  82.3176670  33.1316510  48.8317850  82.4941950
  22.2950620  48.7451490  84.2824150  22.5978660  47.8549230  84.1034370
  23.0394210  49.3021710  84.0546400  20.7241310  39.6713290  77.8708520
  19.8358010  40.0129260  77.7688400  21.0082500  39.4713610  76.9789350
  18.6874320  42.2718940  83.7548220  19.2590430  41.5041140  83.7551860
  18.6875860  42.5707700  82.8454830  28.5454270  51.0909790  81.6093490
  27.9265710  51.5467290  81.0387930  29.4006050  51.2461250  81.2083190
  27.7392520  47.0748780  83.2160530  27.6700800  46.1338720  83.0549660
  28.5012380  47.1650190  83.7883100  19.9299190  37.6803300  85.5417150
  19.7502030  36.7829050  85.8219910  19.5279270  38.2275170  86.2164100
  28.7697690  39.8819160  83.4429460  29.1462510  39.0091040  83.3303130
  28.6717200  40.2177860  82.5519900  22.9002700  38.2544790  78.9046900
  23.0069450  39.1548520  79.2115660  21.9895060  38.2062760  78.6141550
  32.5521810  37.3769600  80.3757800  33.3731430  36.8866170  80.4183280
  32.5855890  37.9667260  81.1289640  20.5485860  40.1763800  84.1499490
  21.2295970  40.4402170  84.7686890  20.2333910  39.3364670  84.4837500
  24.7410430  41.2231160  83.2372080  25.2488650  41.7212130  83.8777100
  25.2723670  40.4466360  83.0611440  36.8421360  39.3936350  86.9401430
  36.1373530  39.7818060  86.4216540  37.1079280  40.0886640  87.5422360
  23.0246530  35.8629720  87.5035500  23.0264970  36.3802110  86.6981400
  22.1950840  35.3859900  87.4805430  29.4117620  45.9749030  79.0025400
  28.7934890  46.4398480  78.4388120  29.9240870  46.6676510  79.4194910
  24.2749380  45.5024900  85.6809000  23.9418760  46.1293820  86.3230070
  24.4516060  46.0286780  84.9010670  32.7883290  39.3169980  83.1485340
  32.0838860  39.6054870  83.7288450  33.1495450  40.1270090  82.7884900
  22.7061860  37.5739680  85.5105950  23.0478670  38.4181730  85.2159820
  21.7677670  37.7223420  85.6271290  23.4868480  47.4705700  87.4958180
  24.1042480  48.1456780  87.2142630  22.6261600  47.8793680  87.4045680
  18.7800820  46.6605560  76.3765030  18.4028800  47.1492660  75.6449930
  19.0373890  47.3330840  77.0071560  34.4046070  48.9345110  85.4112820
  33.7209590  49.6044220  85.4029490  34.9440360  49.1325760  84.6457680
  35.8570210  38.7624770  83.5394550  34.9095120  38.7963750  83.6709980
  36.1820200  39.5763720  83.9243910  26.3889750  35.0621950  81.8350540
  26.6964730  34.5068840  81.1186040  25.4590450  35.1966410  81.6523530
  31.9404810  50.7789240  84.1258000  31.9531970  50.3751530  83.2580260
  31.3880030  51.5536530  84.0219430  33.2350230  47.5005460  79.2148170
  33.1246560  46.5579790  79.3397590  33.2318480  47.8621100  80.1010930
  31.3390250  45.6819080  85.4540610  31.7559040  45.4679190  84.6194070
  32.0630070  45.9391870  86.0249230  28.7770510  43.1270780  78.5710660
  27.8499790  43.0608160  78.7999130  28.9295330  44.0650910  78.4565900
  35.2852350  44.0806300  85.5456850  34.4570980  44.1499390  85.0706980
  35.8802830  44.6660610  85.0772680  32.8067800  44.6891080  79.0745910
  32.1880220  44.3510630  78.4272210  32.7892250  44.0450840  79.7825100
  32.2494360  40.8675620  86.4911720  31.8365540  41.6929330  86.7451710
  31.5170310  40.2820660  86.2988080  24.3827150  43.6535520  81.3530390
  23.9784150  42.9412770  80.8576290  24.4690270  43.3088760  82.2418430
  24.8508850  47.3403080  83.5169600  24.5537140  46.7348550  82.8377380
  25.8008670  47.3780390  83.4058960  23.0955770  40.4278730  85.1329430
  23.6470360  40.5374070  84.3582680  23.6099280  40.8016330  85.8484660
  32.9394460  50.9134950  87.1792700  32.4625020  51.7207140  86.9865310
  32.2556250  50.2613280  87.3318910  22.7698500  43.9498090  88.7434770
  22.6306270  44.8220890  89.1122170  21.8879860  43.6070900  88.5982710
  29.0927880  48.8673960  80.0499900  29.5323790  49.6098290  79.6355290
  29.0314770  49.1100530  80.9738860  34.5649640  35.1820700  74.3959700
  34.2522300  35.2747530  75.2958770  35.3262110  35.7601730  74.3457130
  21.0831780  42.5480500  78.8537040  20.9629380  43.2742590  78.2418310
  20.7732670  41.7783410  78.3764950  18.7217150  45.7195640  84.6605680
  18.7997570  45.8544410  83.7161400  19.3358830  45.0111530  84.8533800
  19.9664780  47.4195830  81.0711860  19.5592860  47.5610420  80.2165460
  20.8577790  47.1355990  80.8683070  29.7843660  51.5687740  87.9778910
  30.2988330  51.4795750  88.7801340  28.9412740  51.9147440  88.2706820
  31.7598060  51.8543080  77.4062910  31.5999200  51.5646020  78.3044740
  31.5944770  51.0783210  76.8708140  24.2386440  51.6341610  79.1834530
  24.0628920  50.7177150  78.9702330  23.3842180  51.9928900  79.4232330
  31.4624190  49.3630640  75.9660910  30.7689350  49.3607930  75.3063190
  32.2047050  48.9389960  75.5355080  31.0274120  50.9893350  80.0409400
  31.4831070  50.2082730  80.3548020  31.3666640  51.7000170  80.5850580
  18.7776670  46.7609810  87.2000140  18.9407710  46.2915170  86.3819510
  19.2429120  46.2533370  87.8648980  23.5495440  35.8915570  82.2360710
  23.1063590  36.6725110  81.9045230  24.1080430  36.2145460  82.9431650
  27.8365250  38.7584090  87.8396030  27.3744620  38.9667110  88.6515970
  27.4343360  37.9443440  87.5366700  26.6654260  35.5126270  77.1166540
  26.0408440  35.5086140  77.8419850  26.5784380  34.6457230  76.7202510
  25.5871340  36.4362900  84.0950310  25.8843670  37.3425730  84.0142330
  26.1356900  35.9481680  83.4809880  23.3409660  41.0149140  79.9641960
  23.1150580  40.7986310  80.8688580  22.5602190  41.4477600  79.6187930
  29.1772290  39.6576050  80.5935890  29.5701860  39.9748250  79.7804580
  29.5389140  38.7787930  80.7080410  20.9119410  38.3248390  88.7836010
  20.5182800  39.1723600  88.9908790  20.2237810  37.6874760  88.9744650
  18.2136460  36.2476850  82.8166090  17.9249510  36.8179710  83.5291070
  18.9582220  35.7681300  83.1797320  18.4006690  40.1896970  74.0268810
  18.3181360  41.1327730  74.1683800  18.0489750  40.0471880  73.1481160
  29.7627430  42.2481800  84.6886670  29.0308550  42.7568610  85.0376770
  29.3651770  41.4311780  84.3875450  26.2004820  38.9236000  83.0939160
  26.2040880  38.4825950  82.2443700  27.0955940  39.2453330  83.2010980
  22.0507200  38.8062490  82.0533370  21.7107250  39.2837720  82.8100420
  21.2884520  38.3527610  81.6934470  26.2624970  39.9248080  76.0845920
  26.3837790  39.8834560  77.0331740  25.8773480  40.7872230  75.9292650
  30.2253340  37.7015480  84.1009610  30.2426080  38.1524130  84.9451460
  29.9768920  36.8021120  84.3143050  25.2746470  42.2349220  75.4829220
  24.7063370  41.7867470  74.8565130  25.9835470  42.5942000  74.9494370
  26.5012790  42.9837780  84.8404570  26.8682920  42.5096350  85.5865910
  26.3117850  43.8579350  85.1812910  19.3653280  37.7281470  80.9698040
  19.0800200  37.3637140  81.8076660  19.3032140  36.9961930  80.3561180
  24.2912160  42.0246420  87.1588780  23.9869230  42.9038400  87.3839140
  25.2458620  42.0846210  87.1946220  22.8193950  46.2307410  77.7555630
  22.0456210  45.6905030  77.5954350  23.5488580  45.7114020  77.4173390
  33.5781930  45.2272770  83.5482020  34.2981050  45.7228060  83.1578130
  33.3763750  44.5490660  82.9035890  29.0391870  36.6210730  77.6911410
  28.2256480  36.1223900  77.6156720  28.8453820  37.4608980  77.2747760
  22.8631350  45.8987790  81.3934440  23.3810020  45.0956050  81.3391330
  22.4115370  45.8366930  82.2351270  20.3475890  42.8649160  88.3060140
  19.9890830  43.5303010  88.8933480  20.0530450  42.0332710  88.6772760
  35.1028670  44.7609740  88.5323400  34.3776860  45.3538520  88.3352790
  35.6304130  44.7533280  87.7336770  35.0541780  49.1584480  78.1835560
  34.4117940  48.5040100  78.4579280  34.6672440  49.5639570  77.4076230
  30.6328260  46.4869910  82.0307250  30.9852080  45.8898040  81.3708620
  29.7490590  46.1614140  82.2015500  26.7191540  47.2467600  79.4377660
  27.4062670  47.7936810  79.8185250  25.9323960  47.7908330  79.4727270
  18.8583940  42.8640420  74.9294740  19.7278790  43.1465220  75.2130660
  18.3674260  43.6776290  74.8143550  26.0218750  44.2513630  79.0503020
  26.4781530  45.0618880  79.2763210  25.6706960  43.9336770  79.8821510
  28.3251360  49.7619970  86.2795320  28.9693580  49.9679350  86.9568740
  28.6880800  49.0008370  85.8266170  21.9230530  34.5951280  79.5225540
  21.7945160  34.5869180  80.4710460  21.0992550  34.9334370  79.1716550
  29.5983440  47.7652320  84.9972770  30.2405670  47.0645480  85.1104940
  30.1232790  48.5450760  84.8169660  33.4439160  48.0500940  74.7211910
  33.2176740  47.3331380  75.3136550  33.0535360  47.8013380  73.8833660
  31.3721060  48.5647220  88.2008830  31.7077300  49.1513910  88.8786750
  30.4521400  48.4339930  88.4306620  19.2255190  52.0767800  75.4956370
  19.5852830  52.6757140  74.8413640  19.0847530  52.6227690  76.2691400
  33.0255410  45.9672880  76.3826070  32.7377110  46.4285570  77.1703950
  33.8207580  45.5070650  76.6510290  20.8430450  44.6813890  77.0576800
  20.2358400  45.4212790  77.0672100  21.3179800  44.7713250  76.2315000
  30.4163240  38.8464710  86.7333690  30.7844060  38.0259920  87.0613260
  29.5561440  38.9066600  87.1489340  25.7509300  40.0807600  78.9579130
  25.0425450  40.5493940  79.3992740  26.0353780  39.4229610  79.5924320
  27.3765230  41.5004300  86.9571660  27.8750480  41.9750120  87.6223510
  27.5188180  40.5767820  87.1641690  29.7824730  36.8058260  80.3974920
  29.6592510  36.8244390  79.4484430  30.7309290  36.8537200  80.5173320
  26.8701520  52.0413560  79.6702900  27.1243020  52.0034950  78.7482270
  25.9214000  51.9146890  79.6631150  23.9544320  38.3892680  76.3329840
  24.8034850  38.8262830  76.2670030  23.5875590  38.7012940  77.1601900
  34.5832090  37.7172260  87.8000050  34.0805690  38.4577660  88.1393860
  35.3988750  38.1056260  87.4836840  32.8754100  42.9605440  81.2461410
  31.9344240  42.9755670  81.4209100  33.1898170  42.1741400  81.6921710
  22.8535740  44.6425040  74.8065370  23.6199010  44.5306400  75.3690800
  22.9310430  43.9463010  74.1542140  21.5482500  42.0750110  75.4898260
  21.6286090  41.1277620  75.6015660  22.4402250  42.4056990  75.5958920
  34.8779680  50.1314290  82.9215670  35.0027100  50.9545460  83.3939480
  35.7445240  49.9205020  82.5739820  22.3497210  52.2245500  82.5932800
  23.0859690  51.6760960  82.8641370  22.7338130  53.0901510  82.4538790
  19.2342690  48.2919070  78.4674310  18.3082470  48.5340210  78.4579720
  19.6999120  49.1193330  78.3459060  34.5129690  50.6245940  75.8395110
  34.2271200  50.2111080  75.0249290  34.3149240  51.5533650  75.7195630
  24.8854770  44.6390170  76.7808010  25.3071190  44.4730040  77.6239400
  25.0105610  43.8290400  76.2863150  26.3015930  36.1422330  86.7003670
  25.8533230  36.1646590  85.8549220  25.6681130  35.7441350  87.2973970
  26.7075480  45.0376660  87.3216110  27.1263590  45.8809390  87.1492350
  25.7884110  45.1748700  87.0922890  31.3827280  43.3230030  87.2816460
  30.8562500  43.8472650  86.6781600  31.7258620  43.9557420  87.9126190
  23.7813670  40.7123400  73.7266170  23.5802730  39.8490760  74.0879510
  23.6105720  40.6256760  72.7887770  24.5582900  51.3429670  88.4373840
  24.0203990  52.0675730  88.1182540  24.8116860  50.8660010  87.6471180
  31.2601980  35.5231630  76.2553050  31.5404270  34.6799530  76.6112470
  30.4867710  35.7554740  76.7691800  22.5796470  37.8124020  73.7144050
  22.8822370  37.8191450  72.8063200  23.3191060  37.4621880  74.2111710
  27.4145110  52.5780880  88.6960490  27.3403810  53.4816020  89.0032860
  26.5123950  52.2592780  88.6682560  25.7981400  36.7558640  74.7000250
  25.4503400  36.0782630  74.1202700  25.9994170  36.2948150  75.5143640
  21.6026600  47.1166440  74.5473850  22.0401470  47.6596110  75.2031430
  22.0874330  46.2913390  74.5570190  18.8172400  49.9055470  81.9994110
  19.1475410  49.0376530  81.7672750  19.2463400  50.1113990  82.8299070
  23.4134320  48.2364480  79.6596080  23.1129860  48.1129450  80.5599990
  23.3071810  47.3773070  79.2511810  19.3062610  50.7726060  84.7375740
  18.8693600  50.9526860  85.5699890  19.8740290  51.5300680  84.5957460
  36.1826240  48.0160880  74.3622760  35.3519200  48.0837530  74.8329990
  36.3598070  48.9065000  74.0589620  19.1387040  43.2846290  81.0964620
  18.4835880  43.0157930  80.4524320  19.9764990  43.1750770  80.6466600
  36.6442670  45.6158460  81.7098890  37.0151500  44.8325780  81.3034860
  37.2844600  46.3047560  81.5316190  33.6276430  46.9995040  87.1229210
  32.8136270  47.4292200  87.3855000  34.0350630  47.6113450  86.5098260
  20.1762970  43.6698860  85.6367960  20.5436010  43.5826260  86.5163980
  19.6073790  42.9065410  85.5374820  34.9766830  42.1383240  88.6498430
  34.7452920  41.9095990  87.7496380  35.2371380  43.0582790  88.6043320
  18.3525120  40.4945220  77.0389950  17.4489200  40.7575420  76.8641610
  18.8365740  40.7656390  76.2589910  34.8618170  41.2169210  82.3166150
  35.3855650  40.7231860  81.6856320  35.4477590  41.3519570  83.0613720
  35.0407890  41.3009080  85.8385700  34.0910600  41.2672620  85.9530690
  35.2220900  42.2109190  85.6035470  20.8952330  39.5510760  74.9484330
  21.6044030  39.1293980  74.4631610  20.1792270  39.6185990  74.3167680
  20.5426490  35.6050090  73.9886980  21.2654620  36.1459030  74.3068200
  20.8151010  35.3313510  73.1128520  20.2318680  34.8556280  83.8909600
  20.8794870  34.3053660  83.4504760  20.6520520  35.1099430  84.7125410
  35.7805300  39.1103510  80.7896240  35.6704580  38.9559550  81.7278510
  36.5412890  38.5824450  80.5471650  34.1271020  35.0497640  87.2479240
  34.7643240  35.6631780  87.6138430  34.2745910  35.0858300  86.3028470
  36.6695570  36.9411430  74.0302380  37.5944880  36.8092610  73.8220670
  36.6471360  37.0204250  74.9838830  36.7434060  37.7122090  76.6559090
  35.9485560  37.6467210  77.1852000  36.9477340  38.6472730  76.6444440
  33.6852480  51.7513640  80.6497480  34.2811550  51.4298210  79.9731900
  33.9430630  51.2785460  81.4410750  19.9850680  35.0111950  86.6334920
  19.6365500  35.4675770  87.3993100  19.6538380  34.1169080  86.7157350
  25.2921080  49.7391140  86.3997830  25.0512440  50.0065700  85.5128350
  26.2323720  49.9096870  86.4548690  36.5525240  51.7585520  87.2008470
  36.0583520  52.1554390  86.4835600  35.9438530  51.1334730  87.5945750
  21.4303080  51.1293800  87.9185890  20.8363400  50.9978500  88.6575930
  21.4226920  50.2931940  87.4527990  30.8758100  34.4226030  86.1215920
  30.0017940  34.7561140  85.9188850  30.7668850  33.9499210  86.9467790
  31.7830080  36.6296900  87.5057640  31.4543440  35.8148660  87.1259370
  32.7312380  36.5866710  87.3823330  34.2364690  52.4008940  84.4795210
  33.7767660  53.1524750  84.1053230  33.6077150  51.6815410  84.4210010
  21.0615310  48.4952180  86.8693930  20.3349370  47.8757470  86.8019880
  21.1224460  48.8892790  85.9992010  24.6660410  50.7097180  83.6543340
  25.1825430  50.0984540  83.1291600  25.3157790  51.2125960  84.1454350
  27.4055910  51.6005670  84.4812320  27.6933720  51.3459970  83.6045330
  27.9179130  51.0483030  85.0717890  28.6232920  35.3395870  85.0608830
  27.8404710  35.8141370  85.3405590  28.3295850  34.4350700  84.9522010
  33.1753990  36.0418970  83.1057920  33.6162080  35.9864070  82.2579520
  32.9061580  36.9576980  83.1768100  35.0392560  35.6734210  81.1166740
  34.9780960  34.7295430  80.9697760  35.8184590  35.7814300  81.6620200
  19.3445310  51.8126570  80.0790690  19.1767350  51.1797250  80.7772580
  18.4779820  52.0185970  79.7284880  19.9673330  35.6443350  77.5822550
  20.7252690  35.7572230  77.0086580  19.5050500  36.4812550  77.5365980
  26.5087140  37.7582620  80.5724860  25.6961650  37.3839510  80.2320740
  27.0128780  37.0027700  80.8746050  31.0112120  34.4225070  81.8107930
  31.6141490  34.9945280  82.2856450  30.2705110  34.9864510  81.5881830
  34.1546720  34.8246630  77.0848210  34.3497350  35.7230080  77.3515640
  33.3676590  34.5933710  77.5781160  20.9508010  50.5059800  77.5240830
  20.4255630  50.8867830  76.8202790  20.8752590  51.1310570  78.2450540
  22.3398480  36.1707400  76.1224520  22.8691240  35.3837200  75.9932470
  22.9726800  36.8498590  76.3560050  24.5336320  35.9082540  79.1769910
  23.9039060  35.2069850  79.3440040  23.9941460  36.6686670  78.9603070
  35.7073330  52.0647340  78.8454770  35.8825520  51.3785080  78.2015690
  35.0094900  52.5894390  78.4531440  23.5500980  52.4542180  76.3990080
  24.2819800  52.1701460  75.8513970  23.8094650  52.2155460  77.2889460
  22.7115770  48.5706910  76.4036410  22.0824650  49.0392010  76.9522240
  22.8263600  47.7256130  76.8382600  22.3149360  44.7111400  65.3122640
  21.4834240  44.4560110  65.7119150  22.9230340  44.7822170  66.0480560
  22.2950620  48.7451490  65.5080660  22.5978660  47.8549230  65.3290880
  23.0394210  49.3021710  65.2802910  20.7241310  39.6713290  59.0965030
  19.8358010  40.0129260  58.9944910  21.0082500  39.4713610  58.2045860
  18.6874320  42.2718940  64.9804730  19.2590430  41.5041140  64.9808370
  18.6875860  42.5707700  64.0711340  19.9299190  37.6803300  66.7673660
  19.7502030  36.7829050  67.0476420  19.5279270  38.2275170  67.4420610
  28.7697690  39.8819160  64.6685970  29.1462510  39.0091040  64.5559640
  28.6717200  40.2177860  63.7776410  22.9002700  38.2544790  60.1303410
  23.0069450  39.1548520  60.4372170  21.9895060  38.2062760  59.8398060
  20.5485860  40.1763800  65.3756000  21.2295970  40.4402170  65.9943400
  20.2333910  39.3364670  65.7094010  24.7410430  41.2231160  64.4628590
  25.2488650  41.7212130  65.1033610  25.2723670  40.4466360  64.2867950
  23.0246530  35.8629720  68.7292010  23.0264970  36.3802110  67.9237910
  22.1950840  35.3859900  68.7061940  24.2749380  45.5024900  66.9065510
  23.9418760  46.1293820  67.5486580  24.4516060  46.0286780  66.1267180
  22.7061860  37.5739680  66.7362460  23.0478670  38.4181730  66.4416330
  21.7677670  37.7223420  66.8527800  18.7800820  46.6605560  57.6021540
  18.4028800  47.1492660  56.8706440  19.0373890  47.3330840  58.2328070
  26.3889750  35.0621950  63.0607050  26.6964730  34.5068840  62.3442550
  25.4590450  35.1966410  62.8780040  24.8508850  47.3403080  64.7426110
  24.5537140  46.7348550  64.0633890  25.8008670  47.3780390  64.6315470
  23.0955770  40.4278730  66.3585940  23.6470360  40.5374070  65.5839190
  23.6099280  40.8016330  67.0741170  22.7698500  43.9498090  69.9691280
  22.6306270  44.8220890  70.3378680  21.8879860  43.6070900  69.8239220
  36.5193670  50.6746890  73.4740600  36.9953390  51.1529780  74.1529680
  37.1400830  50.6064380  72.7486100  18.7217150  45.7195640  65.8862190
  18.7997570  45.8544410  64.9417910  19.3358830  45.0111530  66.0790310
  19.9664780  47.4195830  62.2968370  19.5592860  47.5610420  61.4421970
  20.8577790  47.1355990  62.0939580  18.7776670  46.7609810  68.4256650
  18.9407710  46.2915170  67.6076020  19.2429120  46.2533370  69.0905490
  23.5495440  35.8915570  63.4617220  23.1063590  36.6725110  63.1301740
  24.1080430  36.2145460  64.1688160  27.8365250  38.7584090  69.0652540
  27.3744620  38.9667110  69.8772480  27.4343360  37.9443440  68.7623210
  26.6654260  35.5126270  58.3423050  26.0408440  35.5086140  59.0676360
  26.5784380  34.6457230  57.9459020  25.5871340  36.4362900  65.3206820
  25.8843670  37.3425730  65.2398840  26.1356900  35.9481680  64.7066390
  20.9119410  38.3248390  70.0092520  20.5182800  39.1723600  70.2165300
  20.2237810  37.6874760  70.2001160  27.4864460  38.4083360  73.0789260
  26.7962780  38.2155560  73.7135350  28.2296760  38.6918000  73.6113560
  18.2136460  36.2476850  64.0422600  17.9249510  36.8179710  64.7547580
  18.9582220  35.7681300  64.4053830  18.4006690  40.1896970  55.2525320
  18.3181360  41.1327730  55.3940310  18.0489750  40.0471880  54.3737670
  29.7627430  42.2481800  65.9143180  29.0308550  42.7568610  66.2633280
  29.3651770  41.4311780  65.6131960  26.2004820  38.9236000  64.3195670
  26.2040880  38.4825950  63.4700210  27.0955940  39.2453330  64.4267490
  22.0507200  38.8062490  63.2789880  21.7107250  39.2837720  64.0356930
  21.2884520  38.3527610  62.9190980  20.3515650  46.1361240  70.5852460
  19.9670440  45.4954910  71.1835420  20.6627840  46.8397360  71.1547190
  26.5012790  42.9837780  66.0661080  26.8682920  42.5096350  66.8122420
  26.3117850  43.8579350  66.4069420  19.3653280  37.7281470  62.1954550
  19.0800200  37.3637140  63.0333170  19.3032140  36.9961930  61.5817690
  24.2912160  42.0246420  68.3845290  23.9869230  42.9038400  68.6095650
  25.2458620  42.0846210  68.4202730  20.3475890  42.8649160  69.5316650
  19.9890830  43.5303010  70.1189990  20.0530450  42.0332710  69.9029270
  23.5489010  43.3233400  72.4156200  23.2489150  43.4690580  71.5184020
  24.3200250  42.7638690  72.3229590  18.8583940  42.8640420  56.1551250
  19.7278790  43.1465220  56.4387170  18.3674260  43.6776290  56.0400060
  21.9230530  34.5951280  60.7482050  21.7945160  34.5869180  61.6966970
  21.0992550  34.9334370  60.3973060  19.2255190  52.0767800  56.7212880
  19.5852830  52.6757140  56.0670150  19.0847530  52.6227690  57.4947910
  18.9224460  36.3542400  70.2088750  18.2082980  36.5539320  70.8141360
  19.3419500  35.5781970  70.5803550  19.2097050  50.3422660  71.1955280
  19.3188170  49.4017400  71.0550670  18.5577610  50.6077410  70.5469010
  20.8430450  44.6813890  58.2833310  20.2358400  45.4212790  58.2928610
  21.3179800  44.7713250  57.4571510  22.3497210  52.2245500  63.8189310
  23.0859690  51.6760960  64.0897880  22.7338130  53.0901510  63.6795300
  19.2342690  48.2919070  59.6930820  18.3082470  48.5340210  59.6836230
  19.6999120  49.1193330  59.5715570  19.0753300  43.8965030  71.9510940
  19.5792320  43.3172310  72.5227170  18.3360720  44.1805260  72.4887310
  21.1076380  42.0394620  72.8461010  21.1481720  41.7408490  73.7546240
  21.9621880  42.4402230  72.6868530  23.0482190  40.6186720  70.8135500
  22.5178650  40.1277670  70.1858840  23.7170260  41.0470920  70.2793430
  23.5354490  37.5849090  70.8932790  23.4411360  36.9669840  70.1683660
  22.9551880  38.3115380  70.6662700  26.3015930  36.1422330  67.9260180
  25.8533230  36.1646590  67.0805730  25.6681130  35.7441350  68.5230480
  25.8108150  39.3114190  71.1886280  26.4007840  39.0030040  71.8764100
  24.9928390  38.8393940  71.3446180  21.6026600  47.1166440  55.7730360
  22.0401470  47.6596110  56.4287940  22.0874330  46.2913390  55.7826700
  18.8172400  49.9055470  63.2250620  19.1475410  49.0376530  62.9929260
  19.2463400  50.1113990  64.0555580  19.3062610  50.7726060  65.9632250
  18.8693600  50.9526860  66.7956400  19.8740290  51.5300680  65.8213970
  19.1387040  43.2846290  62.3221130  18.4835880  43.0157930  61.6780830
  19.9764990  43.1750770  61.8723110  20.1762970  43.6698860  66.8624470
  20.5436010  43.5826260  67.7420490  19.6073790  42.9065410  66.7631330
  19.7278970  40.5807950  70.7682890  18.8335020  40.5474710  71.1076600
  20.2676520  40.7794740  71.5334140  18.3525120  40.4945220  58.2646460
  17.4489200  40.7575420  58.0898120  18.8365740  40.7656390  57.4846420
  20.2318680  34.8556280  65.1166110  20.8794870  34.3053660  64.6761270
  20.6520520  35.1099430  65.9381920  19.9850680  35.0111950  67.8591430
  19.6365500  35.4675770  68.6249610  19.6538380  34.1169080  67.9413860
  27.4975500  36.2023830  71.3810850  27.4364390  36.7945660  72.1306260
  28.4375880  36.0949790  71.2361110  30.1350060  35.8593890  71.0203140
  30.7490470  36.1773180  70.3584220  30.6799620  35.3742480  71.6399000
  20.6571320  34.5388150  71.1342200  21.2054310  34.3576200  70.3708310
  20.7226630  33.7482260  71.6698510  21.0615310  48.4952180  68.0950440
  20.3349370  47.8757470  68.0276390  21.1224460  48.8892790  67.2248520
  24.6660410  50.7097180  64.8799850  25.1825430  50.0984540  64.3548110
  25.3157790  51.2125960  65.3710860  28.6232920  35.3395870  66.2865340
  27.8404710  35.8141370  66.5662100  28.3295850  34.4350700  66.1778520
  19.3445310  51.8126570  61.3047200  19.1767350  51.1797250  62.0029090
  18.4779820  52.0185970  60.9541390  19.9673330  35.6443350  58.8079060
  20.7252690  35.7572230  58.2343090  19.5050500  36.4812550  58.7622490
  26.5087140  37.7582620  61.7981370  25.6961650  37.3839510  61.4577250
  27.0128780  37.0027700  62.1002560  24.5336320  35.9082540  60.4026420
  23.9039060  35.2069850  60.5696550  23.9941460  36.6686670  60.1859580
  24.6591880  35.1866520  72.8378910  24.3776150  35.6900120  72.0739730
  25.0411580  34.3888270  72.4721040  31.2607340  34.6020100  73.4159380
  31.1472790  34.9214710  74.3110900  32.0777080  35.0032610  73.1196660
  34.0405830  51.7491630  72.8978070  34.8331150  51.2540860  72.6904030
  34.3338980  52.4281770  73.5053680  18.4006690  40.1896970  36.4781830
  18.3181360  41.1327730  36.6196820  18.0489750  40.0471880  35.5994180
  23.5489010  43.3233400  53.6412710  23.2489150  43.4690580  52.7440530
  24.3200250  42.7638690  53.5486100  18.8583940  42.8640420  37.3807760
  19.7278790  43.1465220  37.6643680  18.3674260  43.6776290  37.2656570
  19.2255190  52.0767800  37.9469390  19.5852830  52.6757140  37.2926660
  19.0847530  52.6227690  38.7204420  21.5482500  42.0750110  37.9411280
  21.6286090  41.1277620  38.0528680  22.4402250  42.4056990  38.0471940
  21.1076380  42.0394620  54.0717520  21.1481720  41.7408490  54.9802750
  21.9621880  42.4402230  53.9125040  24.5582900  51.3429670  50.8886860
  24.0203990  52.0675730  50.5695560  24.8116860  50.8660010  50.0984200
  19.7278970  40.5807950  51.9939400  18.8335020  40.5474710  52.3333110
  20.2676520  40.7794740  52.7590650  18.3525120  40.4945220  39.4902970
  17.4489200  40.7575420  39.3154630  18.8365740  40.7656390  38.7102930
  30.1665490  42.6212570  25.0050630  30.0859540  41.7067180  24.7342340
  29.7529910  43.1179640  24.2990340  28.2983530  44.3991590  26.8859900
  27.5225630  43.9192030  27.1758470  28.9496460  43.7197240  26.7116060
  22.3149360  44.7111400  27.7635660  21.4834240  44.4560110  28.1632170
  22.9230340  44.7822170  28.4993580  22.2950620  48.7451490  27.9593680
  22.5978660  47.8549230  27.7803900  23.0394210  49.3021710  27.7315930
  20.7241310  39.6713290  21.5478050  19.8358010  40.0129260  21.4457930
  21.0082500  39.4713610  20.6558880  18.6874320  42.2718940  27.4317750
  19.2590430  41.5041140  27.4321390  18.6875860  42.5707700  26.5224360
  27.7392520  47.0748780  26.8930060  27.6700800  46.1338720  26.7319190
  28.5012380  47.1650190  27.4652630  19.9299190  37.6803300  29.2186680
  19.7502030  36.7829050  29.4989440  19.5279270  38.2275170  29.8933630
  28.7697690  39.8819160  27.1198990  29.1462510  39.0091040  27.0072660
  28.6717200  40.2177860  26.2289430  22.9002700  38.2544790  22.5816430
  23.0069450  39.1548520  22.8885190  21.9895060  38.2062760  22.2911080
  32.5521810  37.3769600  24.0527330  33.3731430  36.8866170  24.0952810
  32.5855890  37.9667260  24.8059170  20.5485860  40.1763800  27.8269020
  21.2295970  40.4402170  28.4456420  20.2333910  39.3364670  28.1607030
  24.7410430  41.2231160  26.9141610  25.2488650  41.7212130  27.5546630
  25.2723670  40.4466360  26.7380970  29.4117620  45.9749030  22.6794930
  28.7934890  46.4398480  22.1157650  29.9240870  46.6676510  23.0964440
  24.2749380  45.5024900  29.3578530  23.9418760  46.1293820  29.9999600
  24.4516060  46.0286780  28.5780200  32.7883290  39.3169980  26.8254870
  32.0838860  39.6054870  27.4057980  33.1495450  40.1270090  26.4654430
  23.4868480  47.4705700  31.1727710  24.1042480  48.1456780  30.8912160
  22.6261600  47.8793680  31.0815210  18.7800820  46.6605560  20.0534560
  18.4028800  47.1492660  19.3219460  19.0373890  47.3330840  20.6841090
  35.8570210  38.7624770  27.2164080  34.9095120  38.7963750  27.3479510
  36.1820200  39.5763720  27.6013440  26.3889750  35.0621950  25.5120070
  26.6964730  34.5068840  24.7955570  25.4590450  35.1966410  25.3293060
  33.2350230  47.5005460  22.8917700  33.1246560  46.5579790  23.0167120
  33.2318480  47.8621100  23.7780460  28.7770510  43.1270780  22.2480190
  27.8499790  43.0608160  22.4768660  28.9295330  44.0650910  22.1335430
  28.7639590  39.3987780  19.2447350  27.8243260  39.5601740  19.3299810
  29.0822850  40.1173460  18.6983340  32.8067800  44.6891080  22.7515440
  32.1880220  44.3510630  22.1041740  32.7892250  44.0450840  23.4594630
  24.3827150  43.6535520  25.0299920  23.9784150  42.9412770  24.5345820
  24.4690270  43.3088760  25.9187960  24.8508850  47.3403080  27.1939130
  24.5537140  46.7348550  26.5146910  25.8008670  47.3780390  27.0828490
  23.0955770  40.4278730  28.8098960  23.6470360  40.5374070  28.0352210
  23.6099280  40.8016330  29.5254190  23.9427280  47.0784770  33.8446930
  23.0455810  47.3024740  34.0920330  23.9680150  47.2019710  32.8958330
  30.9832500  43.9277890  19.7588190  31.4225780  43.0900320  19.6126010
  31.6960920  44.5607290  19.8452330  22.7698500  43.9498090  32.4204300
  22.6306270  44.8220890  32.7891700  21.8879860  43.6070900  32.2752240
  29.0927880  48.8673960  23.7269430  29.5323790  49.6098290  23.3124820
  29.0314770  49.1100530  24.6508390  34.5649640  35.1820700  18.0729230
  34.2522300  35.2747530  18.9728300  35.3262110  35.7601730  18.0226660
  21.0831780  42.5480500  22.5306570  20.9629380  43.2742590  21.9187840
  20.7732670  41.7783410  22.0534480  18.7217150  45.7195640  28.3375210
  18.7997570  45.8544410  27.3930930  19.3358830  45.0111530  28.5303330
  19.9664780  47.4195830  24.7481390  19.5592860  47.5610420  23.8934990
  20.8577790  47.1355990  24.5452600  31.7598060  51.8543080  21.0832440
  31.5999200  51.5646020  21.9814270  31.5944770  51.0783210  20.5477670
  24.2386440  51.6341610  22.8604060  24.0628920  50.7177150  22.6471860
  23.3842180  51.9928900  23.1001860  31.4624190  49.3630640  19.6430440
  30.7689350  49.3607930  18.9832720  32.2047050  48.9389960  19.2124610
  18.7776670  46.7609810  30.8769670  18.9407710  46.2915170  30.0589040
  19.2429120  46.2533370  31.5418510  23.5495440  35.8915570  25.9130240
  23.1063590  36.6725110  25.5814760  24.1080430  36.2145460  26.6201180
  26.6654260  35.5126270  20.7936070  26.0408440  35.5086140  21.5189380
  26.5784380  34.6457230  20.3972040  23.3409660  41.0149140  23.6411490
  23.1150580  40.7986310  24.5458110  22.5602190  41.4477600  23.2957460
  30.5707420  41.0212510  22.2402140  29.9716310  41.7448310  22.0565760
  31.1187030  40.9589290  21.4578590  29.1772290  39.6576050  24.2705420
  29.5701860  39.9748250  23.4574110  29.5389140  38.7787930  24.3849940
  20.9119410  38.3248390  32.4605540  20.5182800  39.1723600  32.6678320
  20.2237810  37.6874760  32.6514180  18.2136460  36.2476850  26.4935620
  17.9249510  36.8179710  27.2060600  18.9582220  35.7681300  26.8566850
  18.4006690  40.1896970  17.7038340  18.3181360  41.1327730  17.8453330
  18.0489750  40.0471880  16.8250690  26.2004820  38.9236000  26.7708690
  26.2040880  38.4825950  25.9213230  27.0955940  39.2453330  26.8780510
  22.0507200  38.8062490  25.7302900  21.7107250  39.2837720  26.4869950
  21.2884520  38.3527610  25.3704000  26.2624970  39.9248080  19.7615450
  26.3837790  39.8834560  20.7101270  25.8773480  40.7872230  19.6062180
  30.2253340  37.7015480  27.7779140  30.2426080  38.1524130  28.6220990
  29.9768920  36.8021120  27.9912580  25.2746470  42.2349220  19.1598750
  24.7063370  41.7867470  18.5334660  25.9835470  42.5942000  18.6263900
  20.3515650  46.1361240  33.0365480  19.9670440  45.4954910  33.6348440
  20.6627840  46.8397360  33.6060210  26.5012790  42.9837780  28.5174100
  26.8682920  42.5096350  29.2635440  26.3117850  43.8579350  28.8582440
  19.3653280  37.7281470  24.6467570  19.0800200  37.3637140  25.4846190
  19.3032140  36.9961930  24.0330710  24.2912160  42.0246420  30.8358310
  23.9869230  42.9038400  31.0608670  25.2458620  42.0846210  30.8715750
  22.8193950  46.2307410  21.4325160  22.0456210  45.6905030  21.2723880
  23.5488580  45.7114020  21.0942920  29.0391870  36.6210730  21.3680940
  28.2256480  36.1223900  21.2926250  28.8453820  37.4608980  20.9517290
  31.7540260  40.9930380  19.6643100  32.6419880  41.3047610  19.4894440
  31.7245350  40.1202630  19.2723680  22.8631350  45.8987790  25.0703970
  23.3810020  45.0956050  25.0160860  22.4115370  45.8366930  25.9120800
  27.7500850  47.1654070  20.3431270  28.0916550  47.9096300  19.8474590
  26.9213560  47.4785190  20.7056100  20.3475890  42.8649160  31.9829670
  19.9890830  43.5303010  32.5703010  20.0530450  42.0332710  32.3542290
  23.5489010  43.3233400  34.8669220  23.2489150  43.4690580  33.9697040
  24.3200250  42.7638690  34.7742610  34.0254530  42.3042220  19.1322960
  33.9418250  42.7356440  18.2819400  34.7448720  42.7640570  19.5649780
  35.0541780  49.1584480  21.8605090  34.4117940  48.5040100  22.1348810
  34.6672440  49.5639570  21.0845760  26.7191540  47.2467600  23.1147190
  27.4062670  47.7936810  23.4954780  25.9323960  47.7908330  23.1496800
  18.8583940  42.8640420  18.6064270  19.7278790  43.1465220  18.8900190
  18.3674260  43.6776290  18.4913080  26.0218750  44.2513630  22.7272550
  26.4781530  45.0618880  22.9532740  25.6706960  43.9336770  23.5591040
  28.3251360  49.7619970  29.9564850  28.9693580  49.9679350  30.6338270
  28.6880800  49.0008370  29.5035700  21.9230530  34.5951280  23.1995070
  21.7945160  34.5869180  24.1479990  21.0992550  34.9334370  22.8486080
  29.5983440  47.7652320  28.6742300  30.2405670  47.0645480  28.7874470
  30.1232790  48.5450760  28.4939190  33.4439160  48.0500940  18.3981440
  33.2176740  47.3331380  18.9906080  33.0535360  47.8013380  17.5603190
  19.2255190  52.0767800  19.1725900  19.5852830  52.6757140  18.5183170
  19.0847530  52.6227690  19.9460930  18.9224460  36.3542400  32.6601770
  18.2082980  36.5539320  33.2654380  19.3419500  35.5781970  33.0316570
  33.0255410  45.9672880  20.0595600  32.7377110  46.4285570  20.8473480
  33.8207580  45.5070650  20.3279820  19.2097050  50.3422660  33.6468300
  19.3188170  49.4017400  33.5063690  18.5577610  50.6077410  32.9982030
  25.2423810  49.4599000  19.9899570  25.2333910  50.1928690  19.3744080
  24.3222170  49.2130580  20.0826530  20.8430450  44.6813890  20.7346330
  20.2358400  45.4212790  20.7441630  21.3179800  44.7713250  19.9084530
  33.7825270  37.8021650  21.2190780  33.1538430  37.9067320  20.5049010
  33.2877190  38.0218430  22.0084660  28.2283410  49.5227240  18.6524760
  28.3295390  49.3191230  17.7226740  27.3285150  49.2685520  18.8572540
  25.7509300  40.0807600  22.6348660  25.0425450  40.5493940  23.0762270
  26.0353780  39.4229610  23.2693850  27.3765230  41.5004300  30.6341190
  27.8750480  41.9750120  31.2993040  27.5188180  40.5767820  30.8411220
  29.7824730  36.8058260  24.0744450  29.6592510  36.8244390  23.1253960
  30.7309290  36.8537200  24.1942850  26.8701520  52.0413560  23.3472430
  27.1243020  52.0034950  22.4251800  25.9214000  51.9146890  23.3400680
  23.9544320  38.3892680  20.0099370  24.8034850  38.8262830  19.9439560
  23.5875590  38.7012940  20.8371430  22.8535740  44.6425040  18.4834900
  23.6199010  44.5306400  19.0460330  22.9310430  43.9463010  17.8311670
  21.5482500  42.0750110  19.1667790  21.6286090  41.1277620  19.2785190
  22.4402250  42.4056990  19.2728450  22.3497210  52.2245500  26.2702330
  23.0859690  51.6760960  26.5410900  22.7338130  53.0901510  26.1308320
  19.2342690  48.2919070  22.1443840  18.3082470  48.5340210  22.1349250
  19.6999120  49.1193330  22.0228590  21.3555490  51.4091570  35.4587910
  22.1568220  51.7303620  35.8723310  20.8407310  51.0487150  36.1807820
  25.4599520  51.3975810  18.0927900  26.2528130  51.6864640  17.6409690
  24.9403870  50.9667980  17.4140380  34.5129690  50.6245940  19.5164640
  34.2271200  50.2111080  18.7018820  34.3149240  51.5533650  19.3965160
  19.0753300  43.8965030  34.4023960  19.5792320  43.3172310  34.9740190
  18.3360720  44.1805260  34.9400330  25.9776920  46.6179220  17.9570250
  25.8727560  46.0031570  18.6831630  25.8101140  46.0945110  17.1733260
  29.2179650  45.6799250  18.5612240  28.6689750  46.1268550  19.2054980
  29.8398910  45.1748500  19.0849910  21.1076380  42.0394620  35.2974030
  21.1481720  41.7408490  36.2059260  21.9621880  42.4402230  35.1381550
  24.8854770  44.6390170  20.4577540  25.3071190  44.4730040  21.3008930
  25.0105610  43.8290400  19.9632680  23.0482190  40.6186720  33.2648520
  22.5178650  40.1277670  32.6371860  23.7170260  41.0470920  32.7306450
  27.3982410  43.6627780  17.7054640  27.9188070  42.9476800  17.3395790
  28.0450810  44.3013650  18.0055150  26.7075480  45.0376660  30.9985640
  27.1263590  45.8809390  30.8261880  25.7884110  45.1748700  30.7692420
  23.7813670  40.7123400  17.4035700  23.5802730  39.8490760  17.7649040
  23.6105720  40.6256760  16.4657300  24.5582900  51.3429670  32.1143370
  24.0203990  52.0675730  31.7952070  24.8116860  50.8660010  31.3240710
  31.2601980  35.5231630  19.9322580  31.5404270  34.6799530  20.2882000
  30.4867710  35.7554740  20.4461330  22.5796470  37.8124020  17.3913580
  22.8822370  37.8191450  16.4832730  23.3191060  37.4621880  17.8881240
  25.7981400  36.7558640  18.3769780  25.4503400  36.0782630  17.7972230
  25.9994170  36.2948150  19.1913170  27.9630440  51.7439390  19.9956380
  28.8581230  52.0824360  20.0175140  27.9948070  51.0218800  19.3680660
  21.6026600  47.1166440  18.2243380  22.0401470  47.6596110  18.8800960
  22.0874330  46.2913390  18.2339720  18.8172400  49.9055470  25.6763640
  19.1475410  49.0376530  25.4442280  19.2463400  50.1113990  26.5068600
  23.4134320  48.2364480  23.3365610  23.1129860  48.1129450  24.2369520
  23.3071810  47.3773070  22.9281340  19.3062610  50.7726060  28.4145270
  18.8693600  50.9526860  29.2469420  19.8740290  51.5300680  28.2726990
  36.1826240  48.0160880  18.0392290  35.3519200  48.0837530  18.5099520
  36.3598070  48.9065000  17.7359150  35.6382700  44.7608360  20.5426490
  36.4001610  45.3305010  20.6486180  35.6537070  44.1935560  21.3134800
  19.1387040  43.2846290  24.7734150  18.4835880  43.0157930  24.1293850
  19.9764990  43.1750770  24.3236130  35.6901870  45.0542730  17.6999010
  35.9650710  45.9621610  17.5718230  35.5012610  44.9905260  18.6361000
  32.0877480  38.0787580  18.9952640  32.5062360  37.8918560  18.1549300
  31.7813540  37.2266630  19.3055570  35.5867210  42.9911720  22.6928440
  35.2110810  42.2239650  22.2609730  34.8570330  43.3734420  23.1803370
  20.1762970  43.6698860  29.3137490  20.5436010  43.5826260  30.1933510
  19.6073790  42.9065410  29.2144350  19.7278970  40.5807950  33.2195910
  18.8335020  40.5474710  33.5589620  20.2676520  40.7794740  33.9847160
  18.3525120  40.4945220  20.7159480  17.4489200  40.7575420  20.5411140
  18.8365740  40.7656390  19.9359440  34.8618170  41.2169210  25.9935680
  35.3855650  40.7231860  25.3625850  35.4477590  41.3519570  26.7383250
  20.8952330  39.5510760  18.6253860  21.6044030  39.1293980  18.1401140
  20.1792270  39.6185990  17.9937210  20.5426490  35.6050090  17.6656510
  21.2654620  36.1459030  17.9837730  20.8151010  35.3313510  16.7898050
  34.3518140  40.4742560  21.9328090  34.8477260  40.2413430  22.7176970
  34.1534210  39.6354400  21.5165730  20.2318680  34.8556280  27.5679130
  20.8794870  34.3053660  27.1274290  20.6520520  35.1099430  28.3894940
  35.7805300  39.1103510  24.4665770  35.6704580  38.9559550  25.4048040
  36.5412890  38.5824450  24.2241180  36.6695570  36.9411430  17.7071910
  37.5944880  36.8092610  17.4990200  36.6471360  37.0204250  18.6608360
  36.7434060  37.7122090  20.3328620  35.9485560  37.6467210  20.8621530
  36.9477340  38.6472730  20.3213970  21.5915050  48.1831550  34.4757640
  21.5484680  47.8124460  35.3572100  21.7226060  49.1209120  34.6159460
  25.2921080  49.7391140  30.0767360  25.0512440  50.0065700  29.1897880
  26.2323720  49.9096870  30.1318220  21.4303080  51.1293800  31.5955420
  20.8363400  50.9978500  32.3345460  21.4226920  50.2931940  31.1297520
  30.8758100  34.4226030  29.7985450  30.0017940  34.7561140  29.5958380
  30.7668850  33.9499210  30.6237320  21.0615310  48.4952180  30.5463460
  20.3349370  47.8757470  30.4789410  21.1224460  48.8892790  29.6761540
  24.6660410  50.7097180  27.3312870  25.1825430  50.0984540  26.8061130
  25.3157790  51.2125960  27.8223880  27.4055910  51.6005670  28.1581850
  27.6933720  51.3459970  27.2814860  27.9179130  51.0483030  28.7487420
  28.6232920  35.3395870  28.7378360  27.8404710  35.8141370  29.0175120
  28.3295850  34.4350700  28.6291540  33.1753990  36.0418970  26.7827450
  33.6162080  35.9864070  25.9349050  32.9061580  36.9576980  26.8537630
  35.0392560  35.6734210  24.7936270  34.9780960  34.7295430  24.6467290
  35.8184590  35.7814300  25.3389730  19.3445310  51.8126570  23.7560220
  19.1767350  51.1797250  24.4542110  18.4779820  52.0185970  23.4054410
  19.9673330  35.6443350  21.2592080  20.7252690  35.7572230  20.6856110
  19.5050500  36.4812550  21.2135510  26.5087140  37.7582620  24.2494390
  25.6961650  37.3839510  23.9090270  27.0128780  37.0027700  24.5515580
  31.0112120  34.4225070  25.4877460  31.6141490  34.9945280  25.9625980
  30.2705110  34.9864510  25.2651360  34.1546720  34.8246630  20.7617740
  34.3497350  35.7230080  21.0285170  33.3676590  34.5933710  21.2550690
  20.9508010  50.5059800  21.2010360  20.4255630  50.8867830  20.4972320
  20.8752590  51.1310570  21.9220070  22.3398480  36.1707400  19.7994050
  22.8691240  35.3837200  19.6702000  22.9726800  36.8498590  20.0329580
  24.5336320  35.9082540  22.8539440  23.9039060  35.2069850  23.0209570
  23.9941460  36.6686670  22.6372600  23.5500980  52.4542180  20.0759610
  24.2819800  52.1701460  19.5283500  23.8094650  52.2155460  20.9658990
  22.7115770  48.5706910  20.0805940  22.0824650  49.0392010  20.6291770
  22.8263600  47.7256130  20.5152130  30.1665490  42.6212570   6.2307140
  30.0859540  41.7067180   5.9598850  29.7529910  43.1179640   5.5246850
  28.2983530  44.3991590   8.1116410  27.5225630  43.9192030   8.4014980
  28.9496460  43.7197240   7.9372570  22.3149360  44.7111400   8.9892170
  21.4834240  44.4560110   9.3888680  22.9230340  44.7822170   9.7250090
  32.3190960  48.8051780   6.8915540  31.8572490  48.0339020   7.2202710
  33.1316510  48.8317850   7.3967990  22.2950620  48.7451490   9.1850190
  22.5978660  47.8549230   9.0060410  23.0394210  49.3021710   8.9572440
  20.7241310  39.6713290   2.7734560  19.8358010  40.0129260   2.6714440
  21.0082500  39.4713610   1.8815390  18.6874320  42.2718940   8.6574260
  19.2590430  41.5041140   8.6577900  18.6875860  42.5707700   7.7480870
  28.5454270  51.0909790   6.5119530  27.9265710  51.5467290   5.9413970
  29.4006050  51.2461250   6.1109230  27.7392520  47.0748780   8.1186570
  27.6700800  46.1338720   7.9575700  28.5012380  47.1650190   8.6909140
  19.9299190  37.6803300  10.4443190  19.7502030  36.7829050  10.7245950
  19.5279270  38.2275170  11.1190140  28.7697690  39.8819160   8.3455500
  29.1462510  39.0091040   8.2329170  28.6717200  40.2177860   7.4545940
  22.9002700  38.2544790   3.8072940  23.0069450  39.1548520   4.1141700
  21.9895060  38.2062760   3.5167590  32.5521810  37.3769600   5.2783840
  33.3731430  36.8866170   5.3209320  32.5855890  37.9667260   6.0315680
  20.5485860  40.1763800   9.0525530  21.2295970  40.4402170   9.6712930
  20.2333910  39.3364670   9.3863540  24.7410430  41.2231160   8.1398120
  25.2488650  41.7212130   8.7803140  25.2723670  40.4466360   7.9637480
  36.8421360  39.3936350  11.8427470  36.1373530  39.7818060  11.3242580
  37.1079280  40.0886640  12.4448400  23.0246530  35.8629720  12.4061540
  23.0264970  36.3802110  11.6007440  22.1950840  35.3859900  12.3831470
  29.4117620  45.9749030   3.9051440  28.7934890  46.4398480   3.3414160
  29.9240870  46.6676510   4.3220950  24.2749380  45.5024900  10.5835040
  23.9418760  46.1293820  11.2256110  24.4516060  46.0286780   9.8036710
  32.7883290  39.3169980   8.0511380  32.0838860  39.6054870   8.6314490
  33.1495450  40.1270090   7.6910940  22.7061860  37.5739680  10.4131990
  23.0478670  38.4181730  10.1185860  21.7677670  37.7223420  10.5297330
  23.4868480  47.4705700  12.3984220  24.1042480  48.1456780  12.1168670
  22.6261600  47.8793680  12.3071720  34.4046070  48.9345110  10.3138860
  33.7209590  49.6044220  10.3055530  34.9440360  49.1325760   9.5483720
  35.8570210  38.7624770   8.4420590  34.9095120  38.7963750   8.5736020
  36.1820200  39.5763720   8.8269950  26.3889750  35.0621950   6.7376580
  26.6964730  34.5068840   6.0212080  25.4590450  35.1966410   6.5549570
  31.9404810  50.7789240   9.0284040  31.9531970  50.3751530   8.1606300
  31.3880030  51.5536530   8.9245470  33.2350230  47.5005460   4.1174210
  33.1246560  46.5579790   4.2423630  33.2318480  47.8621100   5.0036970
  31.3390250  45.6819080  10.3566650  31.7559040  45.4679190   9.5220110
  32.0630070  45.9391870  10.9275270  28.7770510  43.1270780   3.4736700
  27.8499790  43.0608160   3.7025170  28.9295330  44.0650910   3.3591940
  35.2852350  44.0806300  10.4482890  34.4570980  44.1499390   9.9733020
  35.8802830  44.6660610   9.9798720  32.8067800  44.6891080   3.9771950
  32.1880220  44.3510630   3.3298250  32.7892250  44.0450840   4.6851140
  32.2494360  40.8675620  11.3937760  31.8365540  41.6929330  11.6477750
  31.5170310  40.2820660  11.2014120  24.3827150  43.6535520   6.2556430
  23.9784150  42.9412770   5.7602330  24.4690270  43.3088760   7.1444470
  24.8508850  47.3403080   8.4195640  24.5537140  46.7348550   7.7403420
  25.8008670  47.3780390   8.3085000  23.0955770  40.4278730  10.0355470
  23.6470360  40.5374070   9.2608720  23.6099280  40.8016330  10.7510700
  32.9394460  50.9134950  12.0818740  32.4625020  51.7207140  11.8891350
  32.2556250  50.2613280  12.2344950  23.9427280  47.0784770  15.0703440
  23.0455810  47.3024740  15.3176840  23.9680150  47.2019710  14.1214840
  22.7698500  43.9498090  13.6460810  22.6306270  44.8220890  14.0148210
  21.8879860  43.6070900  13.5008750  29.0927880  48.8673960   4.9525940
  29.5323790  49.6098290   4.5381330  29.0314770  49.1100530   5.8764900
  24.5678850  49.8919790  15.8545960  24.5394280  50.2962740  14.9874390
  24.4043820  48.9630150  15.6917560  21.0831780  42.5480500   3.7563080
  20.9629380  43.2742590   3.1444350  20.7732670  41.7783410   3.2790990
  36.5193670  50.6746890  17.1510130  36.9953390  51.1529780  17.8299210
  37.1400830  50.6064380  16.4255630  18.7217150  45.7195640   9.5631720
  18.7997570  45.8544410   8.6187440  19.3358830  45.0111530   9.7559840
  19.9664780  47.4195830   5.9737900  19.5592860  47.5610420   5.1191500
  20.8577790  47.1355990   5.7709110  35.9226920  47.8659740  14.3110140
  36.0489980  47.6271620  13.3927320  35.9648300  47.0344280  14.7832220
  29.7843660  51.5687740  12.8804950  30.2988330  51.4795750  13.6827380
  28.9412740  51.9147440  13.1732860  31.7598060  51.8543080   2.3088950
  31.5999200  51.5646020   3.2070780  31.5944770  51.0783210   1.7734180
  24.2386440  51.6341610   4.0860570  24.0628920  50.7177150   3.8728370
  23.3842180  51.9928900   4.3258370  31.0274120  50.9893350   4.9435440
  31.4831070  50.2082730   5.2574060  31.3666640  51.7000170   5.4876620
  35.7750930  39.9192200  15.2759880  35.1595200  40.4271870  14.7475340
  35.4547350  39.0190530  15.2185820  18.7776670  46.7609810  12.1026180
  18.9407710  46.2915170  11.2845550  19.2429120  46.2533370  12.7675020
  23.5495440  35.8915570   7.1386750  23.1063590  36.6725110   6.8071270
  24.1080430  36.2145460   7.8457690  27.8365250  38.7584090  12.7422070
  27.3744620  38.9667110  13.5542010  27.4343360  37.9443440  12.4392740
  32.8369760  39.9793040  13.8718730  31.9863350  39.6798790  14.1927800
  32.6771550  40.2235050  12.9602550  29.9319470  41.4794790  15.9717520
  30.2572880  40.6458540  15.6319750  30.7199800  42.0023310  16.1195850
  25.5871340  36.4362900   8.9976350  25.8843670  37.3425730   8.9168370
  26.1356900  35.9481680   8.3835920  23.3409660  41.0149140   4.8668000
  23.1150580  40.7986310   5.7714620  22.5602190  41.4477600   4.5213970
  30.5707420  41.0212510   3.4658650  29.9716310  41.7448310   3.2822270
  31.1187030  40.9589290   2.6835100  25.7808870  41.9134720  15.5328270
  25.6852470  40.9729450  15.3828670  26.6240850  42.1349790  15.1376340
  29.1772290  39.6576050   5.4961930  29.5701860  39.9748250   4.6830620
  29.5389140  38.7787930   5.6106450  20.9119410  38.3248390  13.6862050
  20.5182800  39.1723600  13.8934830  20.2237810  37.6874760  13.8770690
  27.4864460  38.4083360  16.7558790  26.7962780  38.2155560  17.3904880
  28.2296760  38.6918000  17.2883090  18.2136460  36.2476850   7.7192130
  17.9249510  36.8179710   8.4317110  18.9582220  35.7681300   8.0823360
  29.7627430  42.2481800   9.5912710  29.0308550  42.7568610   9.9402810
  29.3651770  41.4311780   9.2901490  26.2004820  38.9236000   7.9965200
  26.2040880  38.4825950   7.1469740  27.0955940  39.2453330   8.1037020
  22.0507200  38.8062490   6.9559410  21.7107250  39.2837720   7.7126460
  21.2884520  38.3527610   6.5960510  30.2253340  37.7015480   9.0035650
  30.2426080  38.1524130   9.8477500  29.9768920  36.8021120   9.2169090
  33.6524090  35.1147660  14.8422030  33.9769860  34.3837320  15.3680010
  33.6880600  34.7961300  13.9403020  20.3515650  46.1361240  14.2621990
  19.9670440  45.4954910  14.8604950  20.6627840  46.8397360  14.8316720
  26.5012790  42.9837780   9.7430610  26.8682920  42.5096350  10.4891950
  26.3117850  43.8579350  10.0838950  19.3653280  37.7281470   5.8724080
  19.0800200  37.3637140   6.7102700  19.3032140  36.9961930   5.2587220
  24.2912160  42.0246420  12.0614820  23.9869230  42.9038400  12.2865180
  25.2458620  42.0846210  12.0972260  22.8193950  46.2307410   2.6581670
  22.0456210  45.6905030   2.4980390  23.5488580  45.7114020   2.3199430
  33.5781930  45.2272770   8.4508060  34.2981050  45.7228060   8.0604170
  33.3763750  44.5490660   7.8061930  29.0391870  36.6210730   2.5937450
  28.2256480  36.1223900   2.5182760  28.8453820  37.4608980   2.1773800
  28.9600730  45.2981830  14.3377060  28.8938040  44.3777500  14.0834650
  28.3305870  45.3957270  15.0521700  22.8631350  45.8987790   6.2960480
  23.3810020  45.0956050   6.2417370  22.4115370  45.8366930   7.1377310
  20.3475890  42.8649160  13.2086180  19.9890830  43.5303010  13.7959520
  20.0530450  42.0332710  13.5798800  23.5489010  43.3233400  16.0925730
  23.2489150  43.4690580  15.1953550  24.3200250  42.7638690  15.9999120
  28.8917460  48.1202400  14.0880860  28.9062000  47.1883360  13.8699770
  28.1842560  48.2062160  14.7270630  35.1028670  44.7609740  13.4349440
  34.3776860  45.3538520  13.2378830  35.6304130  44.7533280  12.6362810
  35.0541780  49.1584480   3.0861600  34.4117940  48.5040100   3.3605320
  34.6672440  49.5639570   2.3102270  30.6328260  46.4869910   6.9333290
  30.9852080  45.8898040   6.2734660  29.7490590  46.1614140   7.1041540
  26.7191540  47.2467600   4.3403700  27.4062670  47.7936810   4.7211290
  25.9323960  47.7908330   4.3753310  26.0218750  44.2513630   3.9529060
  26.4781530  45.0618880   4.1789250  25.6706960  43.9336770   4.7847550
  28.3251360  49.7619970  11.1821360  28.9693580  49.9679350  11.8594780
  28.6880800  49.0008370  10.7292210  21.9230530  34.5951280   4.4251580
  21.7945160  34.5869180   5.3736500  21.0992550  34.9334370   4.0742590
  29.5983440  47.7652320   9.8998810  30.2405670  47.0645480  10.0130980
  30.1232790  48.5450760   9.7195700  31.3721060  48.5647220  13.1034870
  31.7077300  49.1513910  13.7812790  30.4521400  48.4339930  13.3332660
  18.9224460  36.3542400  13.8858280  18.2082980  36.5539320  14.4910890
  19.3419500  35.5781970  14.2573080  19.2097050  50.3422660  14.8724810
  19.3188170  49.4017400  14.7320200  18.5577610  50.6077410  14.2238540
  27.2009640  48.6138550  16.2722930  26.8806510  47.8947790  16.8168620
  26.5268000  49.2893620  16.3458990  30.4163240  38.8464710  11.6359730
  30.7844060  38.0259920  11.9639300  29.5561440  38.9066600  12.0515380
  33.7825270  37.8021650   2.4447290  33.1538430  37.9067320   1.7305520
  33.2877190  38.0218430   3.2341170  25.7509300  40.0807600   3.8605170
  25.0425450  40.5493940   4.3018780  26.0353780  39.4229610   4.4950360
  27.3765230  41.5004300  11.8597700  27.8750480  41.9750120  12.5249550
  27.5188180  40.5767820  12.0667730  29.7824730  36.8058260   5.3000960
  29.6592510  36.8244390   4.3510470  30.7309290  36.8537200   5.4199360
  26.8701520  52.0413560   4.5728940  27.1243020  52.0034950   3.6508310
  25.9214000  51.9146890   4.5657190  34.5832090  37.7172260  12.7026090
  34.0805690  38.4577660  13.0419900  35.3988750  38.1056260  12.3862880
  32.8754100  42.9605440   6.1487450  31.9344240  42.9755670   6.3235140
  33.1898170  42.1741400   6.5947750  34.8779680  50.1314290   7.8241710
  35.0027100  50.9545460   8.2965520  35.7445240  49.9205020   7.4765860
  22.3497210  52.2245500   7.4958840  23.0859690  51.6760960   7.7667410
  22.7338130  53.0901510   7.3564830  19.2342690  48.2919070   3.3700350
  18.3082470  48.5340210   3.3605760  19.6999120  49.1193330   3.2485100
  21.3555490  51.4091570  16.6844420  22.1568220  51.7303620  17.0979820
  20.8407310  51.0487150  17.4064330  30.1920120  47.5171440  16.6319830
  29.5858280  47.5403040  15.8915580  29.8874230  46.7854480  17.1687080
  31.6220490  51.2451730  15.2429240  32.5742240  51.1609750  15.1929480
  31.4748710  51.9093440  15.9163030  19.0753300  43.8965030  15.6280470
  19.5792320  43.3172310  16.1996700  18.3360720  44.1805260  16.1656840
  26.1291240  45.3036020  15.1615990  25.3636910  45.8721020  15.0770660
  26.3107200  45.0112230  14.2684220  33.2714590  47.0341350  15.7191010
  34.0124060  47.3717110  15.2158470  32.5087270  47.2033410  15.1660780
  21.1076380  42.0394620  16.5230540  21.1481720  41.7408490  17.4315770
  21.9621880  42.4402230  16.3638060  23.0482190  40.6186720  14.4905030
  22.5178650  40.1277670  13.8628370  23.7170260  41.0470920  13.9562960
  31.9460250  45.0856180  14.2546220  32.3601270  45.2401260  15.1036640
  31.0111250  45.2111400  14.4172000  32.4182420  42.4252340  16.2585370
  33.0003190  41.6704660  16.1705850  32.5944190  42.9559780  15.4816850
  23.5354490  37.5849090  14.5702320  23.4411360  36.9669840  13.8453190
  22.9551880  38.3115380  14.3432230  26.3015930  36.1422330  11.6029710
  25.8533230  36.1646590  10.7575260  25.6681130  35.7441350  12.2000010
  26.7075480  45.0376660  12.2242150  27.1263590  45.8809390  12.0518390
  25.7884110  45.1748700  11.9948930  29.0439380  42.7692840  13.6079990
  29.1635590  42.1733980  14.3474830  29.9033380  42.8062530  13.1881290
  31.3827280  43.3230030  12.1842500  30.8562500  43.8472650  11.5807640
  31.7258620  43.9557420  12.8152230  24.5582900  51.3429670  13.3399880
  24.0203990  52.0675730  13.0208580  24.8116860  50.8660010  12.5497220
  25.8108150  39.3114190  14.8655810  26.4007840  39.0030040  15.5533630
  24.9928390  38.8393940  15.0215710  30.6301580  38.9280000  15.0988830
  29.9417100  38.2661540  15.0338820  31.3507600  38.4818270  15.5437290
  27.4145110  52.5780880  13.5986530  27.3403810  53.4816020  13.9058900
  26.5123950  52.2592780  13.5708600  18.8172400  49.9055470   6.9020150
  19.1475410  49.0376530   6.6698790  19.2463400  50.1113990   7.7325110
  23.4134320  48.2364480   4.5622120  23.1129860  48.1129450   5.4626030
  23.3071810  47.3773070   4.1537850  19.3062610  50.7726060   9.6401780
  18.8693600  50.9526860  10.4725930  19.8740290  51.5300680   9.4983500
  34.9424790  50.2743060  13.9279090  34.3426780  50.3335620  13.1843010
  35.0718690  49.3348040  14.0575940  35.6382700  44.7608360   1.7683000
  36.4001610  45.3305010   1.8742690  35.6537070  44.1935560   2.5391310
  19.1387040  43.2846290   5.9990660  18.4835880  43.0157930   5.3550360
  19.9764990  43.1750770   5.5492640  36.6442670  45.6158460   6.6124930
  37.0151500  44.8325780   6.2060900  37.2844600  46.3047560   6.4342230
  33.6276430  46.9995040  12.0255250  32.8136270  47.4292200  12.2881040
  34.0350630  47.6113450  11.4124300  35.5867210  42.9911720   3.9184950
  35.2110810  42.2239650   3.4866240  34.8570330  43.3734420   4.4059880
  20.1762970  43.6698860  10.5394000  20.5436010  43.5826260  11.4190020
  19.6073790  42.9065410  10.4400860  34.9766830  42.1383240  13.5524470
  34.7452920  41.9095990  12.6522420  35.2371380  43.0582790  13.5069360
  19.7278970  40.5807950  14.4452420  18.8335020  40.5474710  14.7846130
  20.2676520  40.7794740  15.2103670  33.4154900  37.3639670  16.3304170
  34.2925080  37.3723070  16.7138170  33.4275740  36.6270510  15.7196520
  34.8618170  41.2169210   7.2192190  35.3855650  40.7231860   6.5882360
  35.4477590  41.3519570   7.9639760  35.0407890  41.3009080  10.7411740
  34.0910600  41.2672620  10.8556730  35.2220900  42.2109190  10.5061510
  34.3518140  40.4742560   3.1584600  34.8477260  40.2413430   3.9433480
  34.1534210  39.6354400   2.7422240  20.2318680  34.8556280   8.7935640
  20.8794870  34.3053660   8.3530800  20.6520520  35.1099430   9.6151450
  35.7805300  39.1103510   5.6922280  35.6704580  38.9559550   6.6304550
  36.5412890  38.5824450   5.4497690  34.1271020  35.0497640  12.1505280
  34.7643240  35.6631780  12.5164470  34.2745910  35.0858300  11.2054510
  33.6852480  51.7513640   5.5523520  34.2811550  51.4298210   4.8757940
  33.9430630  51.2785460   6.3436790  19.9850680  35.0111950  11.5360960
  19.6365500  35.4675770  12.3019140  19.6538380  34.1169080  11.6183390
  21.5915050  48.1831550  15.7014150  21.5484680  47.8124460  16.5828610
  21.7226060  49.1209120  15.8415970  25.2921080  49.7391140  11.3023870
  25.0512440  50.0065700  10.4154390  26.2323720  49.9096870  11.3574730
  27.4975500  36.2023830  15.0580380  27.4364390  36.7945660  15.8075790
  28.4375880  36.0949790  14.9130640  30.1350060  35.8593890  14.6972670
  30.7490470  36.1773180  14.0353750  30.6799620  35.3742480  15.3168530
  36.5525240  51.7585520  12.1034510  36.0583520  52.1554390  11.3861640
  35.9438530  51.1334730  12.4971790  20.6571320  34.5388150  14.8111730
  21.2054310  34.3576200  14.0477840  20.7226630  33.7482260  15.3468040
  21.4303080  51.1293800  12.8211930  20.8363400  50.9978500  13.5601970
  21.4226920  50.2931940  12.3554030  30.8758100  34.4226030  11.0241960
  30.0017940  34.7561140  10.8214890  30.7668850  33.9499210  11.8493830
  31.7830080  36.6296900  12.4083680  31.4543440  35.8148660  12.0285410
  32.7312380  36.5866710  12.2849370  34.2364690  52.4008940   9.3821250
  33.7767660  53.1524750   9.0079270  33.6077150  51.6815410   9.3236050
  21.0615310  48.4952180  11.7719970  20.3349370  47.8757470  11.7045920
  21.1224460  48.8892790  10.9018050  24.6660410  50.7097180   8.5569380
  25.1825430  50.0984540   8.0317640  25.3157790  51.2125960   9.0480390
  27.4055910  51.6005670   9.3838360  27.6933720  51.3459970   8.5071370
  27.9179130  51.0483030   9.9743930  28.6232920  35.3395870   9.9634870
  27.8404710  35.8141370  10.2431630  28.3295850  34.4350700   9.8548050
  33.1753990  36.0418970   8.0083960  33.6162080  35.9864070   7.1605560
  32.9061580  36.9576980   8.0794140  35.0392560  35.6734210   6.0192780
  34.9780960  34.7295430   5.8723800  35.8184590  35.7814300   6.5646240
  19.3445310  51.8126570   4.9816730  19.1767350  51.1797250   5.6798620
  18.4779820  52.0185970   4.6310920  19.9673330  35.6443350   2.4848590
  20.7252690  35.7572230   1.9112620  19.5050500  36.4812550   2.4392020
  26.5087140  37.7582620   5.4750900  25.6961650  37.3839510   5.1346780
  27.0128780  37.0027700   5.7772090  31.0112120  34.4225070   6.7133970
  31.6141490  34.9945280   7.1882490  30.2705110  34.9864510   6.4907870
  34.1546720  34.8246630   1.9874250  34.3497350  35.7230080   2.2541680
  33.3676590  34.5933710   2.4807200  20.9508010  50.5059800   2.4266870
  20.4255630  50.8867830   1.7228830  20.8752590  51.1310570   3.1476580
  24.5336320  35.9082540   4.0795950  23.9039060  35.2069850   4.2466080
  23.9941460  36.6686670   3.8629110  27.4728270  52.5221770  16.7506560
  28.3995580  52.2866040  16.7942520  27.4578700  53.3493770  16.2692590
  35.7073330  52.0647340   3.7480810  35.8825520  51.3785080   3.1041730
  35.0094900  52.5894390   3.3557480  24.6591880  35.1866520  16.5148440
  24.3776150  35.6900120  15.7509260  25.0411580  34.3888270  16.1490570
  31.2607340  34.6020100  17.0928910  31.1472790  34.9214710  17.9880430
  32.0777080  35.0032610  16.7966190  34.0405830  51.7491630  16.5747600
  34.8331150  51.2540860  16.3673560  34.3338980  52.4281770  17.1823210
  30.1665490  23.8469080  81.3281100  30.0859540  22.9323690  81.0572810
  29.7529910  24.3436150  80.6220810  28.2983530  25.6248100  83.2090370
  27.5225630  25.1448540  83.4988940  28.9496460  24.9453750  83.0346530
  22.3149360  25.9367910  84.0866130  21.4834240  25.6816620  84.4862640
  22.9230340  26.0078680  84.8224050  32.3190960  30.0308290  81.9889500
  31.8572490  29.2595530  82.3176670  33.1316510  30.0574360  82.4941950
  22.2950620  29.9708000  84.2824150  22.5978660  29.0805740  84.1034370
  23.0394210  30.5278220  84.0546400  20.7241310  20.8969800  77.8708520
  19.8358010  21.2385770  77.7688400  21.0082500  20.6970120  76.9789350
  18.6874320  23.4975450  83.7548220  19.2590430  22.7297650  83.7551860
  18.6875860  23.7964210  82.8454830  28.5454270  32.3166300  81.6093490
  27.9265710  32.7723800  81.0387930  29.4006050  32.4717760  81.2083190
  27.7392520  28.3005290  83.2160530  27.6700800  27.3595230  83.0549660
  28.5012380  28.3906700  83.7883100  19.9299190  18.9059810  85.5417150
  19.7502030  18.0085560  85.8219910  19.5279270  19.4531680  86.2164100
  28.7697690  21.1075670  83.4429460  29.1462510  20.2347550  83.3303130
  28.6717200  21.4434370  82.5519900  22.9002700  19.4801300  78.9046900
  23.0069450  20.3805030  79.2115660  21.9895060  19.4319270  78.6141550
  32.5521810  18.6026110  80.3757800  33.3731430  18.1122680  80.4183280
  32.5855890  19.1923770  81.1289640  20.5485860  21.4020310  84.1499490
  21.2295970  21.6658680  84.7686890  20.2333910  20.5621180  84.4837500
  24.7410430  22.4487670  83.2372080  25.2488650  22.9468640  83.8777100
  25.2723670  21.6722870  83.0611440  36.8421360  20.6192860  86.9401430
  36.1373530  21.0074570  86.4216540  37.1079280  21.3143150  87.5422360
  23.0246530  17.0886230  87.5035500  23.0264970  17.6058620  86.6981400
  22.1950840  16.6116410  87.4805430  29.4117620  27.2005540  79.0025400
  28.7934890  27.6654990  78.4388120  29.9240870  27.8933020  79.4194910
  24.2749380  26.7281410  85.6809000  23.9418760  27.3550330  86.3230070
  24.4516060  27.2543290  84.9010670  32.7883290  20.5426490  83.1485340
  32.0838860  20.8311380  83.7288450  33.1495450  21.3526600  82.7884900
  22.7061860  18.7996190  85.5105950  23.0478670  19.6438240  85.2159820
  21.7677670  18.9479930  85.6271290  23.4868480  28.6962210  87.4958180
  24.1042480  29.3713290  87.2142630  22.6261600  29.1050190  87.4045680
  18.7800820  27.8862070  76.3765030  18.4028800  28.3749170  75.6449930
  19.0373890  28.5587350  77.0071560  34.4046070  30.1601620  85.4112820
  33.7209590  30.8300730  85.4029490  34.9440360  30.3582270  84.6457680
  35.8570210  19.9881280  83.5394550  34.9095120  20.0220260  83.6709980
  36.1820200  20.8020230  83.9243910  26.3889750  16.2878460  81.8350540
  26.6964730  15.7325350  81.1186040  25.4590450  16.4222920  81.6523530
  31.9404810  32.0045750  84.1258000  31.9531970  31.6008040  83.2580260
  31.3880030  32.7793040  84.0219430  33.2350230  28.7261970  79.2148170
  33.1246560  27.7836300  79.3397590  33.2318480  29.0877610  80.1010930
  31.3390250  26.9075590  85.4540610  31.7559040  26.6935700  84.6194070
  32.0630070  27.1648380  86.0249230  28.7770510  24.3527290  78.5710660
  27.8499790  24.2864670  78.7999130  28.9295330  25.2907420  78.4565900
  28.7639590  20.6244290  75.5677820  27.8243260  20.7858250  75.6530280
  29.0822850  21.3429970  75.0213810  35.2852350  25.3062810  85.5456850
  34.4570980  25.3755900  85.0706980  35.8802830  25.8917120  85.0772680
  32.8067800  25.9147590  79.0745910  32.1880220  25.5767140  78.4272210
  32.7892250  25.2707350  79.7825100  32.2494360  22.0932130  86.4911720
  31.8365540  22.9185840  86.7451710  31.5170310  21.5077170  86.2988080
  24.3827150  24.8792030  81.3530390  23.9784150  24.1669280  80.8576290
  24.4690270  24.5345270  82.2418430  24.8508850  28.5659590  83.5169600
  24.5537140  27.9605060  82.8377380  25.8008670  28.6036900  83.4058960
  23.0955770  21.6535240  85.1329430  23.6470360  21.7630580  84.3582680
  23.6099280  22.0272840  85.8484660  32.9394460  32.1391460  87.1792700
  32.4625020  32.9463650  86.9865310  32.2556250  31.4869790  87.3318910
  30.9832500  25.1534400  76.0818660  31.4225780  24.3156830  75.9356480
  31.6960920  25.7863800  76.1682800  22.7698500  25.1754600  88.7434770
  22.6306270  26.0477400  89.1122170  21.8879860  24.8327410  88.5982710
  29.0927880  30.0930470  80.0499900  29.5323790  30.8354800  79.6355290
  29.0314770  30.3357040  80.9738860  34.5649640  16.4077210  74.3959700
  34.2522300  16.5004040  75.2958770  35.3262110  16.9858240  74.3457130
  21.0831780  23.7737010  78.8537040  20.9629380  24.4999100  78.2418310
  20.7732670  23.0039920  78.3764950  18.7217150  26.9452150  84.6605680
  18.7997570  27.0800920  83.7161400  19.3358830  26.2368040  84.8533800
  19.9664780  28.6452340  81.0711860  19.5592860  28.7866930  80.2165460
  20.8577790  28.3612500  80.8683070  29.7843660  32.7944250  87.9778910
  30.2988330  32.7052260  88.7801340  28.9412740  33.1403950  88.2706820
  31.7598060  33.0799590  77.4062910  31.5999200  32.7902530  78.3044740
  31.5944770  32.3039720  76.8708140  24.2386440  32.8598120  79.1834530
  24.0628920  31.9433660  78.9702330  23.3842180  33.2185410  79.4232330
  31.4624190  30.5887150  75.9660910  30.7689350  30.5864440  75.3063190
  32.2047050  30.1646470  75.5355080  31.0274120  32.2149860  80.0409400
  31.4831070  31.4339240  80.3548020  31.3666640  32.9256680  80.5850580
  18.7776670  27.9866320  87.2000140  18.9407710  27.5171680  86.3819510
  19.2429120  27.4789880  87.8648980  23.5495440  17.1172080  82.2360710
  23.1063590  17.8981620  81.9045230  24.1080430  17.4401970  82.9431650
  27.8365250  19.9840600  87.8396030  27.3744620  20.1923620  88.6515970
  27.4343360  19.1699950  87.5366700  26.6654260  16.7382780  77.1166540
  26.0408440  16.7342650  77.8419850  26.5784380  15.8713740  76.7202510
  25.5871340  17.6619410  84.0950310  25.8843670  18.5682240  84.0142330
  26.1356900  17.1738190  83.4809880  23.3409660  22.2405650  79.9641960
  23.1150580  22.0242820  80.8688580  22.5602190  22.6734110  79.6187930
  30.5707420  22.2469020  78.5632610  29.9716310  22.9704820  78.3796230
  31.1187030  22.1845800  77.7809060  29.1772290  20.8832560  80.5935890
  29.5701860  21.2004760  79.7804580  29.5389140  20.0044440  80.7080410
  20.9119410  19.5504900  88.7836010  20.5182800  20.3980110  88.9908790
  20.2237810  18.9131270  88.9744650  18.2136460  17.4733360  82.8166090
  17.9249510  18.0436220  83.5291070  18.9582220  16.9937810  83.1797320
  18.4006690  21.4153480  74.0268810  18.3181360  22.3584240  74.1683800
  18.0489750  21.2728390  73.1481160  29.7627430  23.4738310  84.6886670
  29.0308550  23.9825120  85.0376770  29.3651770  22.6568290  84.3875450
  26.2004820  20.1492510  83.0939160  26.2040880  19.7082460  82.2443700
  27.0955940  20.4709840  83.2010980  22.0507200  20.0319000  82.0533370
  21.7107250  20.5094230  82.8100420  21.2884520  19.5784120  81.6934470
  26.2624970  21.1504590  76.0845920  26.3837790  21.1091070  77.0331740
  25.8773480  22.0128740  75.9292650  30.2253340  18.9271990  84.1009610
  30.2426080  19.3780640  84.9451460  29.9768920  18.0277630  84.3143050
  25.2746470  23.4605730  75.4829220  24.7063370  23.0123980  74.8565130
  25.9835470  23.8198510  74.9494370  26.5012790  24.2094290  84.8404570
  26.8682920  23.7352860  85.5865910  26.3117850  25.0835860  85.1812910
  19.3653280  18.9537980  80.9698040  19.0800200  18.5893650  81.8076660
  19.3032140  18.2218440  80.3561180  24.2912160  23.2502930  87.1588780
  23.9869230  24.1294910  87.3839140  25.2458620  23.3102720  87.1946220
  22.8193950  27.4563920  77.7555630  22.0456210  26.9161540  77.5954350
  23.5488580  26.9370530  77.4173390  33.5781930  26.4529280  83.5482020
  34.2981050  26.9484570  83.1578130  33.3763750  25.7747170  82.9035890
  29.0391870  17.8467240  77.6911410  28.2256480  17.3480410  77.6156720
  28.8453820  18.6865490  77.2747760  31.7540260  22.2186890  75.9873570
  32.6419880  22.5304120  75.8124910  31.7245350  21.3459140  75.5954150
  22.8631350  27.1244300  81.3934440  23.3810020  26.3212560  81.3391330
  22.4115370  27.0623440  82.2351270  27.7500850  28.3910580  76.6661740
  28.0916550  29.1352810  76.1705060  26.9213560  28.7041700  77.0286570
  20.3475890  24.0905670  88.3060140  19.9890830  24.7559520  88.8933480
  20.0530450  23.2589220  88.6772760  34.0254530  23.5298730  75.4553430
  33.9418250  23.9612950  74.6049870  34.7448720  23.9897080  75.8880250
  35.1028670  25.9866250  88.5323400  34.3776860  26.5795030  88.3352790
  35.6304130  25.9789790  87.7336770  35.0541780  30.3840990  78.1835560
  34.4117940  29.7296610  78.4579280  34.6672440  30.7896080  77.4076230
  30.6328260  27.7126420  82.0307250  30.9852080  27.1154550  81.3708620
  29.7490590  27.3870650  82.2015500  26.7191540  28.4724110  79.4377660
  27.4062670  29.0193320  79.8185250  25.9323960  29.0164840  79.4727270
  18.8583940  24.0896930  74.9294740  19.7278790  24.3721730  75.2130660
  18.3674260  24.9032800  74.8143550  26.0218750  25.4770140  79.0503020
  26.4781530  26.2875390  79.2763210  25.6706960  25.1593280  79.8821510
  28.3251360  30.9876480  86.2795320  28.9693580  31.1935860  86.9568740
  28.6880800  30.2264880  85.8266170  21.9230530  15.8207790  79.5225540
  21.7945160  15.8125690  80.4710460  21.0992550  16.1590880  79.1716550
  29.5983440  28.9908830  84.9972770  30.2405670  28.2901990  85.1104940
  30.1232790  29.7707270  84.8169660  33.4439160  29.2757450  74.7211910
  33.2176740  28.5587890  75.3136550  33.0535360  29.0269890  73.8833660
  31.3721060  29.7903730  88.2008830  31.7077300  30.3770420  88.8786750
  30.4521400  29.6596440  88.4306620  19.2255190  33.3024310  75.4956370
  19.5852830  33.9013650  74.8413640  19.0847530  33.8484200  76.2691400
  33.0255410  27.1929390  76.3826070  32.7377110  27.6542080  77.1703950
  33.8207580  26.7327160  76.6510290  25.2423810  30.6855510  76.3130040
  25.2333910  31.4185200  75.6974550  24.3222170  30.4387090  76.4057000
  20.8430450  25.9070400  77.0576800  20.2358400  26.6469300  77.0672100
  21.3179800  25.9969760  76.2315000  30.4163240  20.0721220  86.7333690
  30.7844060  19.2516430  87.0613260  29.5561440  20.1323110  87.1489340
  33.7825270  19.0278160  77.5421250  33.1538430  19.1323830  76.8279480
  33.2877190  19.2474940  78.3315130  28.2283410  30.7483750  74.9755230
  28.3295390  30.5447740  74.0457210  27.3285150  30.4942030  75.1803010
  25.7509300  21.3064110  78.9579130  25.0425450  21.7750450  79.3992740
  26.0353780  20.6486120  79.5924320  27.3765230  22.7260810  86.9571660
  27.8750480  23.2006630  87.6223510  27.5188180  21.8024330  87.1641690
  29.7824730  18.0314770  80.3974920  29.6592510  18.0500900  79.4484430
  30.7309290  18.0793710  80.5173320  26.8701520  33.2670070  79.6702900
  27.1243020  33.2291460  78.7482270  25.9214000  33.1403400  79.6631150
  23.9544320  19.6149190  76.3329840  24.8034850  20.0519340  76.2670030
  23.5875590  19.9269450  77.1601900  34.5832090  18.9428770  87.8000050
  34.0805690  19.6834170  88.1393860  35.3988750  19.3312770  87.4836840
  32.8754100  24.1861950  81.2461410  31.9344240  24.2012180  81.4209100
  33.1898170  23.3997910  81.6921710  22.8535740  25.8681550  74.8065370
  23.6199010  25.7562910  75.3690800  22.9310430  25.1719520  74.1542140
  21.5482500  23.3006620  75.4898260  21.6286090  22.3534130  75.6015660
  22.4402250  23.6313500  75.5958920  34.8779680  31.3570800  82.9215670
  35.0027100  32.1801970  83.3939480  35.7445240  31.1461530  82.5739820
  22.3497210  33.4502010  82.5932800  23.0859690  32.9017470  82.8641370
  22.7338130  34.3158020  82.4538790  19.2342690  29.5175580  78.4674310
  18.3082470  29.7596720  78.4579720  19.6999120  30.3449840  78.3459060
  25.4599520  32.6232320  74.4158370  26.2528130  32.9121150  73.9640160
  24.9403870  32.1924490  73.7370850  34.5129690  31.8502450  75.8395110
  34.2271200  31.4367590  75.0249290  34.3149240  32.7790160  75.7195630
  25.9776920  27.8435730  74.2800720  25.8727560  27.2288080  75.0062100
  25.8101140  27.3201620  73.4963730  29.2179650  26.9055760  74.8842710
  28.6689750  27.3525060  75.5285450  29.8398910  26.4005010  75.4080380
  24.8854770  25.8646680  76.7808010  25.3071190  25.6986550  77.6239400
  25.0105610  25.0546910  76.2863150  27.3982410  24.8884290  74.0285110
  27.9188070  24.1733310  73.6626260  28.0450810  25.5270160  74.3285620
  26.3015930  17.3678840  86.7003670  25.8533230  17.3903100  85.8549220
  25.6681130  16.9697860  87.2973970  26.7075480  26.2633170  87.3216110
  27.1263590  27.1065900  87.1492350  25.7884110  26.4005210  87.0922890
  31.3827280  24.5486540  87.2816460  30.8562500  25.0729160  86.6781600
  31.7258620  25.1813930  87.9126190  23.7813670  21.9379910  73.7266170
  23.5802730  21.0747270  74.0879510  23.6105720  21.8513270  72.7887770
  24.5582900  32.5686180  88.4373840  24.0203990  33.2932240  88.1182540
  24.8116860  32.0916520  87.6471180  31.2601980  16.7488140  76.2553050
  31.5404270  15.9056040  76.6112470  30.4867710  16.9811250  76.7691800
  22.5796470  19.0380530  73.7144050  22.8822370  19.0447960  72.8063200
  23.3191060  18.6878390  74.2111710  27.4145110  33.8037390  88.6960490
  27.3403810  34.7072530  89.0032860  26.5123950  33.4849290  88.6682560
  25.7981400  17.9815150  74.7000250  25.4503400  17.3039140  74.1202700
  25.9994170  17.5204660  75.5143640  27.9630440  32.9695900  76.3186850
  28.8581230  33.3080870  76.3405610  27.9948070  32.2475310  75.6911130
  21.6026600  28.3422950  74.5473850  22.0401470  28.8852620  75.2031430
  22.0874330  27.5169900  74.5570190  18.8172400  31.1311980  81.9994110
  19.1475410  30.2633040  81.7672750  19.2463400  31.3370500  82.8299070
  23.4134320  29.4620990  79.6596080  23.1129860  29.3385960  80.5599990
  23.3071810  28.6029580  79.2511810  19.3062610  31.9982570  84.7375740
  18.8693600  32.1783370  85.5699890  19.8740290  32.7557190  84.5957460
  36.1826240  29.2417390  74.3622760  35.3519200  29.3094040  74.8329990
  36.3598070  30.1321510  74.0589620  35.6382700  25.9864870  76.8656960
  36.4001610  26.5561520  76.9716650  35.6537070  25.4192070  77.6365270
  19.1387040  24.5102800  81.0964620  18.4835880  24.2414440  80.4524320
  19.9764990  24.4007280  80.6466600  36.6442670  26.8414970  81.7098890
  37.0151500  26.0582290  81.3034860  37.2844600  27.5304070  81.5316190
  33.6276430  28.2251550  87.1229210  32.8136270  28.6548710  87.3855000
  34.0350630  28.8369960  86.5098260  35.6901870  26.2799240  74.0229480
  35.9650710  27.1878120  73.8948700  35.5012610  26.2161770  74.9591470
  32.0877480  19.3044090  75.3183110  32.5062360  19.1175070  74.4779770
  31.7813540  18.4523140  75.6286040  35.5867210  24.2168230  79.0158910
  35.2110810  23.4496160  78.5840200  34.8570330  24.5990930  79.5033840
  20.1762970  24.8955370  85.6367960  20.5436010  24.8082770  86.5163980
  19.6073790  24.1321920  85.5374820  34.9766830  23.3639750  88.6498430
  34.7452920  23.1352500  87.7496380  35.2371380  24.2839300  88.6043320
  18.3525120  21.7201730  77.0389950  17.4489200  21.9831930  76.8641610
  18.8365740  21.9912900  76.2589910  34.8618170  22.4425720  82.3166150
  35.3855650  21.9488370  81.6856320  35.4477590  22.5776080  83.0613720
  35.0407890  22.5265590  85.8385700  34.0910600  22.4929130  85.9530690
  35.2220900  23.4365700  85.6035470  20.8952330  20.7767270  74.9484330
  21.6044030  20.3550490  74.4631610  20.1792270  20.8442500  74.3167680
  20.5426490  16.8306600  73.9886980  21.2654620  17.3715540  74.3068200
  20.8151010  16.5570020  73.1128520  34.3518140  21.6999070  78.2558560
  34.8477260  21.4669940  79.0407440  34.1534210  20.8610910  77.8396200
  20.2318680  16.0812790  83.8909600  20.8794870  15.5310170  83.4504760
  20.6520520  16.3355940  84.7125410  35.7805300  20.3360020  80.7896240
  35.6704580  20.1816060  81.7278510  36.5412890  19.8080960  80.5471650
  34.1271020  16.2754150  87.2479240  34.7643240  16.8888290  87.6138430
  34.2745910  16.3114810  86.3028470  36.6695570  18.1667940  74.0302380
  37.5944880  18.0349120  73.8220670  36.6471360  18.2460760  74.9838830
  36.7434060  18.9378600  76.6559090  35.9485560  18.8723720  77.1852000
  36.9477340  19.8729240  76.6444440  33.6852480  32.9770150  80.6497480
  34.2811550  32.6554720  79.9731900  33.9430630  32.5041970  81.4410750
  19.9850680  16.2368460  86.6334920  19.6365500  16.6932280  87.3993100
  19.6538380  15.3425590  86.7157350  25.2921080  30.9647650  86.3997830
  25.0512440  31.2322210  85.5128350  26.2323720  31.1353380  86.4548690
  36.5525240  32.9842030  87.2008470  36.0583520  33.3810900  86.4835600
  35.9438530  32.3591240  87.5945750  21.4303080  32.3550310  87.9185890
  20.8363400  32.2235010  88.6575930  21.4226920  31.5188450  87.4527990
  30.8758100  15.6482540  86.1215920  30.0017940  15.9817650  85.9188850
  30.7668850  15.1755720  86.9467790  31.7830080  17.8553410  87.5057640
  31.4543440  17.0405170  87.1259370  32.7312380  17.8123220  87.3823330
  34.2364690  33.6265450  84.4795210  33.7767660  34.3781260  84.1053230
  33.6077150  32.9071920  84.4210010  21.0615310  29.7208690  86.8693930
  20.3349370  29.1013980  86.8019880  21.1224460  30.1149300  85.9992010
  24.6660410  31.9353690  83.6543340  25.1825430  31.3241050  83.1291600
  25.3157790  32.4382470  84.1454350  27.4055910  32.8262180  84.4812320
  27.6933720  32.5716480  83.6045330  27.9179130  32.2739540  85.0717890
  28.6232920  16.5652380  85.0608830  27.8404710  17.0397880  85.3405590
  28.3295850  15.6607210  84.9522010  33.1753990  17.2675480  83.1057920
  33.6162080  17.2120580  82.2579520  32.9061580  18.1833490  83.1768100
  35.0392560  16.8990720  81.1166740  34.9780960  15.9551940  80.9697760
  35.8184590  17.0070810  81.6620200  19.3445310  33.0383080  80.0790690
  19.1767350  32.4053760  80.7772580  18.4779820  33.2442480  79.7284880
  19.9673330  16.8699860  77.5822550  20.7252690  16.9828740  77.0086580
  19.5050500  17.7069060  77.5365980  26.5087140  18.9839130  80.5724860
  25.6961650  18.6096020  80.2320740  27.0128780  18.2284210  80.8746050
  31.0112120  15.6481580  81.8107930  31.6141490  16.2201790  82.2856450
  30.2705110  16.2121020  81.5881830  34.1546720  16.0503140  77.0848210
  34.3497350  16.9486590  77.3515640  33.3676590  15.8190220  77.5781160
  20.9508010  31.7316310  77.5240830  20.4255630  32.1124340  76.8202790
  20.8752590  32.3567080  78.2450540  22.3398480  17.3963910  76.1224520
  22.8691240  16.6093710  75.9932470  22.9726800  18.0755100  76.3560050
  24.5336320  17.1339050  79.1769910  23.9039060  16.4326360  79.3440040
  23.9941460  17.8943180  78.9603070  35.7073330  33.2903850  78.8454770
  35.8825520  32.6041590  78.2015690  35.0094900  33.8150900  78.4531440
  23.5500980  33.6798690  76.3990080  24.2819800  33.3957970  75.8513970
  23.8094650  33.4411970  77.2889460  22.7115770  29.7963420  76.4036410
  22.0824650  30.2648520  76.9522240  22.8263600  28.9512640  76.8382600
  30.1665490  23.8469080  62.5537610  30.0859540  22.9323690  62.2829320
  29.7529910  24.3436150  61.8477320  28.2983530  25.6248100  64.4346880
  27.5225630  25.1448540  64.7245450  28.9496460  24.9453750  64.2603040
  22.3149360  25.9367910  65.3122640  21.4834240  25.6816620  65.7119150
  22.9230340  26.0078680  66.0480560  32.3190960  30.0308290  63.2146010
  31.8572490  29.2595530  63.5433180  33.1316510  30.0574360  63.7198460
  22.2950620  29.9708000  65.5080660  22.5978660  29.0805740  65.3290880
  23.0394210  30.5278220  65.2802910  20.7241310  20.8969800  59.0965030
  19.8358010  21.2385770  58.9944910  21.0082500  20.6970120  58.2045860
  18.6874320  23.4975450  64.9804730  19.2590430  22.7297650  64.9808370
  18.6875860  23.7964210  64.0711340  28.5454270  32.3166300  62.8350000
  27.9265710  32.7723800  62.2644440  29.4006050  32.4717760  62.4339700
  27.7392520  28.3005290  64.4417040  27.6700800  27.3595230  64.2806170
  28.5012380  28.3906700  65.0139610  19.9299190  18.9059810  66.7673660
  19.7502030  18.0085560  67.0476420  19.5279270  19.4531680  67.4420610
  28.7697690  21.1075670  64.6685970  29.1462510  20.2347550  64.5559640
  28.6717200  21.4434370  63.7776410  22.9002700  19.4801300  60.1303410
  23.0069450  20.3805030  60.4372170  21.9895060  19.4319270  59.8398060
  32.5521810  18.6026110  61.6014310  33.3731430  18.1122680  61.6439790
  32.5855890  19.1923770  62.3546150  20.5485860  21.4020310  65.3756000
  21.2295970  21.6658680  65.9943400  20.2333910  20.5621180  65.7094010
  24.7410430  22.4487670  64.4628590  25.2488650  22.9468640  65.1033610
  25.2723670  21.6722870  64.2867950  36.8421360  20.6192860  68.1657940
  36.1373530  21.0074570  67.6473050  37.1079280  21.3143150  68.7678870
  23.0246530  17.0886230  68.7292010  23.0264970  17.6058620  67.9237910
  22.1950840  16.6116410  68.7061940  29.4117620  27.2005540  60.2281910
  28.7934890  27.6654990  59.6644630  29.9240870  27.8933020  60.6451420
  24.2749380  26.7281410  66.9065510  23.9418760  27.3550330  67.5486580
  24.4516060  27.2543290  66.1267180  32.7883290  20.5426490  64.3741850
  32.0838860  20.8311380  64.9544960  33.1495450  21.3526600  64.0141410
  22.7061860  18.7996190  66.7362460  23.0478670  19.6438240  66.4416330
  21.7677670  18.9479930  66.8527800  23.4868480  28.6962210  68.7214690
  24.1042480  29.3713290  68.4399140  22.6261600  29.1050190  68.6302190
  18.7800820  27.8862070  57.6021540  18.4028800  28.3749170  56.8706440
  19.0373890  28.5587350  58.2328070  34.4046070  30.1601620  66.6369330
  33.7209590  30.8300730  66.6286000  34.9440360  30.3582270  65.8714190
  35.8570210  19.9881280  64.7651060  34.9095120  20.0220260  64.8966490
  36.1820200  20.8020230  65.1500420  26.3889750  16.2878460  63.0607050
  26.6964730  15.7325350  62.3442550  25.4590450  16.4222920  62.8780040
  31.9404810  32.0045750  65.3514510  31.9531970  31.6008040  64.4836770
  31.3880030  32.7793040  65.2475940  33.2350230  28.7261970  60.4404680
  33.1246560  27.7836300  60.5654100  33.2318480  29.0877610  61.3267440
  31.3390250  26.9075590  66.6797120  31.7559040  26.6935700  65.8450580
  32.0630070  27.1648380  67.2505740  35.2852350  25.3062810  66.7713360
  34.4570980  25.3755900  66.2963490  35.8802830  25.8917120  66.3029190
  32.2494360  22.0932130  67.7168230  31.8365540  22.9185840  67.9708220
  31.5170310  21.5077170  67.5244590  24.3827150  24.8792030  62.5786900
  23.9784150  24.1669280  62.0832800  24.4690270  24.5345270  63.4674940
  24.8508850  28.5659590  64.7426110  24.5537140  27.9605060  64.0633890
  25.8008670  28.6036900  64.6315470  23.0955770  21.6535240  66.3585940
  23.6470360  21.7630580  65.5839190  23.6099280  22.0272840  67.0741170
  32.9394460  32.1391460  68.4049210  32.4625020  32.9463650  68.2121820
  32.2556250  31.4869790  68.5575420  23.9427280  28.3041280  71.3933910
  23.0455810  28.5281250  71.6407310  23.9680150  28.4276220  70.4445310
  22.7698500  25.1754600  69.9691280  22.6306270  26.0477400  70.3378680
  21.8879860  24.8327410  69.8239220  29.0927880  30.0930470  61.2756410
  29.5323790  30.8354800  60.8611800  29.0314770  30.3357040  62.1995370
  24.5678850  31.1176300  72.1776430  24.5394280  31.5219250  71.3104860
  24.4043820  30.1886660  72.0148030  34.5649640  16.4077210  55.6216210
  34.2522300  16.5004040  56.5215280  35.3262110  16.9858240  55.5713640
  21.0831780  23.7737010  60.0793550  20.9629380  24.4999100  59.4674820
  20.7732670  23.0039920  59.6021460  36.5193670  31.9003400  73.4740600
  36.9953390  32.3786290  74.1529680  37.1400830  31.8320890  72.7486100
  18.7217150  26.9452150  65.8862190  18.7997570  27.0800920  64.9417910
  19.3358830  26.2368040  66.0790310  19.9664780  28.6452340  62.2968370
  19.5592860  28.7866930  61.4421970  20.8577790  28.3612500  62.0939580
  35.9226920  29.0916250  70.6340610  36.0489980  28.8528130  69.7157790
  35.9648300  28.2600790  71.1062690  29.7843660  32.7944250  69.2035420
  30.2988330  32.7052260  70.0057850  28.9412740  33.1403950  69.4963330
  24.2386440  32.8598120  60.4091040  24.0628920  31.9433660  60.1958840
  23.3842180  33.2185410  60.6488840  31.0274120  32.2149860  61.2665910
  31.4831070  31.4339240  61.5804530  31.3666640  32.9256680  61.8107090
  35.7750930  21.1448710  71.5990350  35.1595200  21.6528380  71.0705810
  35.4547350  20.2447040  71.5416290  18.7776670  27.9866320  68.4256650
  18.9407710  27.5171680  67.6076020  19.2429120  27.4789880  69.0905490
  23.5495440  17.1172080  63.4617220  23.1063590  17.8981620  63.1301740
  24.1080430  17.4401970  64.1688160  27.8365250  19.9840600  69.0652540
  27.3744620  20.1923620  69.8772480  27.4343360  19.1699950  68.7623210
  32.8369760  21.2049550  70.1949200  31.9863350  20.9055300  70.5158270
  32.6771550  21.4491560  69.2833020  29.9319470  22.7051300  72.2947990
  30.2572880  21.8715050  71.9550220  30.7199800  23.2279820  72.4426320
  26.6654260  16.7382780  58.3423050  26.0408440  16.7342650  59.0676360
  26.5784380  15.8713740  57.9459020  25.5871340  17.6619410  65.3206820
  25.8843670  18.5682240  65.2398840  26.1356900  17.1738190  64.7066390
  23.3409660  22.2405650  61.1898470  23.1150580  22.0242820  62.0945090
  22.5602190  22.6734110  60.8444440  25.7808870  23.1391230  71.8558740
  25.6852470  22.1985960  71.7059140  26.6240850  23.3606300  71.4606810
  20.9119410  19.5504900  70.0092520  20.5182800  20.3980110  70.2165300
  20.2237810  18.9131270  70.2001160  27.4864460  19.6339870  73.0789260
  26.7962780  19.4412070  73.7135350  28.2296760  19.9174510  73.6113560
  18.2136460  17.4733360  64.0422600  17.9249510  18.0436220  64.7547580
  18.9582220  16.9937810  64.4053830  18.4006690  21.4153480  55.2525320
  18.3181360  22.3584240  55.3940310  18.0489750  21.2728390  54.3737670
  29.7627430  23.4738310  65.9143180  29.0308550  23.9825120  66.2633280
  29.3651770  22.6568290  65.6131960  26.2004820  20.1492510  64.3195670
  26.2040880  19.7082460  63.4700210  27.0955940  20.4709840  64.4267490
  22.0507200  20.0319000  63.2789880  21.7107250  20.5094230  64.0356930
  21.2884520  19.5784120  62.9190980  30.2253340  18.9271990  65.3266120
  30.2426080  19.3780640  66.1707970  29.9768920  18.0277630  65.5399560
  33.6524090  16.3404170  71.1652500  33.9769860  15.6093830  71.6910480
  33.6880600  16.0217810  70.2633490  20.3515650  27.3617750  70.5852460
  19.9670440  26.7211420  71.1835420  20.6627840  28.0653870  71.1547190
  26.5012790  24.2094290  66.0661080  26.8682920  23.7352860  66.8122420
  26.3117850  25.0835860  66.4069420  19.3653280  18.9537980  62.1954550
  19.0800200  18.5893650  63.0333170  19.3032140  18.2218440  61.5817690
  24.2912160  23.2502930  68.3845290  23.9869230  24.1294910  68.6095650
  25.2458620  23.3102720  68.4202730  22.8193950  27.4563920  58.9812140
  22.0456210  26.9161540  58.8210860  23.5488580  26.9370530  58.6429900
  33.5781930  26.4529280  64.7738530  34.2981050  26.9484570  64.3834640
  33.3763750  25.7747170  64.1292400  28.9600730  26.5238340  70.6607530
  28.8938040  25.6034010  70.4065120  28.3305870  26.6213780  71.3752170
  22.8631350  27.1244300  62.6190950  23.3810020  26.3212560  62.5647840
  22.4115370  27.0623440  63.4607780  20.3475890  24.0905670  69.5316650
  19.9890830  24.7559520  70.1189990  20.0530450  23.2589220  69.9029270
  23.5489010  24.5489910  72.4156200  23.2489150  24.6947090  71.5184020
  24.3200250  23.9895200  72.3229590  28.8917460  29.3458910  70.4111330
  28.9062000  28.4139870  70.1930240  28.1842560  29.4318670  71.0501100
  35.1028670  25.9866250  69.7579910  34.3776860  26.5795030  69.5609300
  35.6304130  25.9789790  68.9593280  30.6328260  27.7126420  63.2563760
  30.9852080  27.1154550  62.5965130  29.7490590  27.3870650  63.4272010
  26.7191540  28.4724110  60.6634170  27.4062670  29.0193320  61.0441760
  25.9323960  29.0164840  60.6983780  26.0218750  25.4770140  60.2759530
  26.4781530  26.2875390  60.5019720  25.6706960  25.1593280  61.1078020
  28.3251360  30.9876480  67.5051830  28.9693580  31.1935860  68.1825250
  28.6880800  30.2264880  67.0522680  21.9230530  15.8207790  60.7482050
  21.7945160  15.8125690  61.6966970  21.0992550  16.1590880  60.3973060
  29.5983440  28.9908830  66.2229280  30.2405670  28.2901990  66.3361450
  30.1232790  29.7707270  66.0426170  31.3721060  29.7903730  69.4265340
  31.7077300  30.3770420  70.1043260  30.4521400  29.6596440  69.6563130
  18.9224460  17.5798910  70.2088750  18.2082980  17.7795830  70.8141360
  19.3419500  16.8038480  70.5803550  19.2097050  31.5679170  71.1955280
  19.3188170  30.6273910  71.0550670  18.5577610  31.8333920  70.5469010
  27.2009640  29.8395060  72.5953400  26.8806510  29.1204300  73.1399090
  26.5268000  30.5150130  72.6689460  20.8430450  25.9070400  58.2833310
  20.2358400  26.6469300  58.2928610  21.3179800  25.9969760  57.4571510
  30.4163240  20.0721220  67.9590200  30.7844060  19.2516430  68.2869770
  29.5561440  20.1323110  68.3745850  33.7825270  19.0278160  58.7677760
  33.1538430  19.1323830  58.0535990  33.2877190  19.2474940  59.5571640
  25.7509300  21.3064110  60.1835640  25.0425450  21.7750450  60.6249250
  26.0353780  20.6486120  60.8180830  27.3765230  22.7260810  68.1828170
  27.8750480  23.2006630  68.8480020  27.5188180  21.8024330  68.3898200
  29.7824730  18.0314770  61.6231430  29.6592510  18.0500900  60.6740940
  30.7309290  18.0793710  61.7429830  26.8701520  33.2670070  60.8959410
  27.1243020  33.2291460  59.9738780  25.9214000  33.1403400  60.8887660
  23.9544320  19.6149190  57.5586350  24.8034850  20.0519340  57.4926540
  23.5875590  19.9269450  58.3858410  34.5832090  18.9428770  69.0256560
  34.0805690  19.6834170  69.3650370  35.3988750  19.3312770  68.7093350
  32.8754100  24.1861950  62.4717920  31.9344240  24.2012180  62.6465610
  33.1898170  23.3997910  62.9178220  34.8779680  31.3570800  64.1472180
  35.0027100  32.1801970  64.6195990  35.7445240  31.1461530  63.7996330
  22.3497210  33.4502010  63.8189310  23.0859690  32.9017470  64.0897880
  22.7338130  34.3158020  63.6795300  19.2342690  29.5175580  59.6930820
  18.3082470  29.7596720  59.6836230  19.6999120  30.3449840  59.5715570
  21.3555490  32.6348080  73.0074890  22.1568220  32.9560130  73.4210290
  20.8407310  32.2743660  73.7294800  30.1920120  28.7427950  72.9550300
  29.5858280  28.7659550  72.2146050  29.8874230  28.0110990  73.4917550
  31.6220490  32.4708240  71.5659710  32.5742240  32.3866260  71.5159950
  31.4748710  33.1349950  72.2393500  19.0753300  25.1221540  71.9510940
  19.5792320  24.5428820  72.5227170  18.3360720  25.4061770  72.4887310
  26.1291240  26.5292530  71.4846460  25.3636910  27.0977530  71.4001130
  26.3107200  26.2368740  70.5914690  33.2714590  28.2597860  72.0421480
  34.0124060  28.5973620  71.5388940  32.5087270  28.4289920  71.4891250
  21.1076380  23.2651130  72.8461010  21.1481720  22.9665000  73.7546240
  21.9621880  23.6658740  72.6868530  24.8854770  25.8646680  58.0064520
  25.3071190  25.6986550  58.8495910  25.0105610  25.0546910  57.5119660
  23.0482190  21.8443230  70.8135500  22.5178650  21.3534180  70.1858840
  23.7170260  22.2727430  70.2793430  31.9460250  26.3112690  70.5776690
  32.3601270  26.4657770  71.4267110  31.0111250  26.4367910  70.7402470
  32.4182420  23.6508850  72.5815840  33.0003190  22.8961170  72.4936320
  32.5944190  24.1816290  71.8047320  23.5354490  18.8105600  70.8932790
  23.4411360  18.1926350  70.1683660  22.9551880  19.5371890  70.6662700
  26.3015930  17.3678840  67.9260180  25.8533230  17.3903100  67.0805730
  25.6681130  16.9697860  68.5230480  26.7075480  26.2633170  68.5472620
  27.1263590  27.1065900  68.3748860  25.7884110  26.4005210  68.3179400
  29.0439380  23.9949350  69.9310460  29.1635590  23.3990490  70.6705300
  29.9033380  24.0319040  69.5111760  31.3827280  24.5486540  68.5072970
  30.8562500  25.0729160  67.9038110  31.7258620  25.1813930  69.1382700
  24.5582900  32.5686180  69.6630350  24.0203990  33.2932240  69.3439050
  24.8116860  32.0916520  68.8727690  25.8108150  20.5370700  71.1886280
  26.4007840  20.2286550  71.8764100  24.9928390  20.0650450  71.3446180
  30.6301580  20.1536510  71.4219300  29.9417100  19.4918050  71.3569290
  31.3507600  19.7074780  71.8667760  31.2601980  16.7488140  57.4809560
  31.5404270  15.9056040  57.8368980  30.4867710  16.9811250  57.9948310
  22.5796470  19.0380530  54.9400560  22.8822370  19.0447960  54.0319710
  23.3191060  18.6878390  55.4368220  27.4145110  33.8037390  69.9217000
  27.3403810  34.7072530  70.2289370  26.5123950  33.4849290  69.8939070
  18.8172400  31.1311980  63.2250620  19.1475410  30.2633040  62.9929260
  19.2463400  31.3370500  64.0555580  23.4134320  29.4620990  60.8852590
  23.1129860  29.3385960  61.7856500  23.3071810  28.6029580  60.4768320
  19.3062610  31.9982570  65.9632250  18.8693600  32.1783370  66.7956400
  19.8740290  32.7557190  65.8213970  34.9424790  31.4999570  70.2509560
  34.3426780  31.5592130  69.5073480  35.0718690  30.5604550  70.3806410
  19.1387040  24.5102800  62.3221130  18.4835880  24.2414440  61.6780830
  19.9764990  24.4007280  61.8723110  36.6442670  26.8414970  62.9355400
  37.0151500  26.0582290  62.5291370  37.2844600  27.5304070  62.7572700
  33.6276430  28.2251550  68.3485720  32.8136270  28.6548710  68.6111510
  34.0350630  28.8369960  67.7354770  35.5867210  24.2168230  60.2415420
  35.2110810  23.4496160  59.8096710  34.8570330  24.5990930  60.7290350
  20.1762970  24.8955370  66.8624470  20.5436010  24.8082770  67.7420490
  19.6073790  24.1321920  66.7631330  34.9766830  23.3639750  69.8754940
  34.7452920  23.1352500  68.9752890  35.2371380  24.2839300  69.8299830
  19.7278970  21.8064460  70.7682890  18.8335020  21.7731220  71.1076600
  20.2676520  22.0051250  71.5334140  33.4154900  18.5896180  72.6534640
  34.2925080  18.5979580  73.0368640  33.4275740  17.8527020  72.0426990
  18.3525120  21.7201730  58.2646460  17.4489200  21.9831930  58.0898120
  18.8365740  21.9912900  57.4846420  34.8618170  22.4425720  63.5422660
  35.3855650  21.9488370  62.9112830  35.4477590  22.5776080  64.2870230
  35.0407890  22.5265590  67.0642210  34.0910600  22.4929130  67.1787200
  35.2220900  23.4365700  66.8291980  20.8952330  20.7767270  56.1740840
  21.6044030  20.3550490  55.6888120  20.1792270  20.8442500  55.5424190
  20.5426490  16.8306600  55.2143490  21.2654620  17.3715540  55.5324710
  20.8151010  16.5570020  54.3385030  20.2318680  16.0812790  65.1166110
  20.8794870  15.5310170  64.6761270  20.6520520  16.3355940  65.9381920
  35.7805300  20.3360020  62.0152750  35.6704580  20.1816060  62.9535020
  36.5412890  19.8080960  61.7728160  34.1271020  16.2754150  68.4735750
  34.7643240  16.8888290  68.8394940  34.2745910  16.3114810  67.5284980
  36.6695570  18.1667940  55.2558890  37.5944880  18.0349120  55.0477180
  36.6471360  18.2460760  56.2095340  36.7434060  18.9378600  57.8815600
  35.9485560  18.8723720  58.4108510  36.9477340  19.8729240  57.8700950
  19.9850680  16.2368460  67.8591430  19.6365500  16.6932280  68.6249610
  19.6538380  15.3425590  67.9413860  21.5915050  29.4088060  72.0244620
  21.5484680  29.0380970  72.9059080  21.7226060  30.3465630  72.1646440
  25.2921080  30.9647650  67.6254340  25.0512440  31.2322210  66.7384860
  26.2323720  31.1353380  67.6805200  27.4975500  17.4280340  71.3810850
  27.4364390  18.0202170  72.1306260  28.4375880  17.3206300  71.2361110
  30.1350060  17.0850400  71.0203140  30.7490470  17.4029690  70.3584220
  30.6799620  16.5998990  71.6399000  20.6571320  15.7644660  71.1342200
  21.2054310  15.5832710  70.3708310  20.7226630  14.9738770  71.6698510
  21.4303080  32.3550310  69.1442400  20.8363400  32.2235010  69.8832440
  21.4226920  31.5188450  68.6784500  30.8758100  15.6482540  67.3472430
  30.0017940  15.9817650  67.1445360  30.7668850  15.1755720  68.1724300
  31.7830080  17.8553410  68.7314150  31.4543440  17.0405170  68.3515880
  32.7312380  17.8123220  68.6079840  21.0615310  29.7208690  68.0950440
  20.3349370  29.1013980  68.0276390  21.1224460  30.1149300  67.2248520
  24.6660410  31.9353690  64.8799850  25.1825430  31.3241050  64.3548110
  25.3157790  32.4382470  65.3710860  27.4055910  32.8262180  65.7068830
  27.6933720  32.5716480  64.8301840  27.9179130  32.2739540  66.2974400
  28.6232920  16.5652380  66.2865340  27.8404710  17.0397880  66.5662100
  28.3295850  15.6607210  66.1778520  33.1753990  17.2675480  64.3314430
  33.6162080  17.2120580  63.4836030  32.9061580  18.1833490  64.4024610
  35.0392560  16.8990720  62.3423250  34.9780960  15.9551940  62.1954270
  35.8184590  17.0070810  62.8876710  19.3445310  33.0383080  61.3047200
  19.1767350  32.4053760  62.0029090  18.4779820  33.2442480  60.9541390
  19.9673330  16.8699860  58.8079060  20.7252690  16.9828740  58.2343090
  19.5050500  17.7069060  58.7622490  26.5087140  18.9839130  61.7981370
  25.6961650  18.6096020  61.4577250  27.0128780  18.2284210  62.1002560
  31.0112120  15.6481580  63.0364440  31.6141490  16.2201790  63.5112960
  30.2705110  16.2121020  62.8138340  34.1546720  16.0503140  58.3104720
  34.3497350  16.9486590  58.5772150  33.3676590  15.8190220  58.8037670
  20.9508010  31.7316310  58.7497340  20.4255630  32.1124340  58.0459300
  20.8752590  32.3567080  59.4707050  22.3398480  17.3963910  57.3481030
  22.8691240  16.6093710  57.2188980  22.9726800  18.0755100  57.5816560
  24.5336320  17.1339050  60.4026420  23.9039060  16.4326360  60.5696550
  23.9941460  17.8943180  60.1859580  27.4728270  33.7478280  73.0737030
  28.3995580  33.5122550  73.1172990  27.4578700  34.5750280  72.5923060
  24.6591880  16.4123030  72.8378910  24.3776150  16.9156630  72.0739730
  25.0411580  15.6144780  72.4721040  31.2607340  15.8276610  73.4159380
  31.1472790  16.1471220  74.3110900  32.0777080  16.2289120  73.1196660
  34.0405830  32.9748140  72.8978070  34.8331150  32.4797370  72.6904030
  34.3338980  33.6538280  73.5053680  23.0246530  17.0886230  49.9548520
  23.0264970  17.6058620  49.1494420  22.1950840  16.6116410  49.9318450
  26.3889750  16.2878460  44.2863560  26.6964730  15.7325350  43.5699060
  25.4590450  16.4222920  44.1036550  35.7750930  21.1448710  52.8246860
  35.1595200  21.6528380  52.2962320  35.4547350  20.2447040  52.7672800
  23.5495440  17.1172080  44.6873730  23.1063590  17.8981620  44.3558250
  24.1080430  17.4401970  45.3944670  26.6654260  16.7382780  39.5679560
  26.0408440  16.7342650  40.2932870  26.5784380  15.8713740  39.1715530
  25.5871340  17.6619410  46.5463330  25.8843670  18.5682240  46.4655350
  26.1356900  17.1738190  45.9322900  18.2136460  17.4733360  45.2679110
  17.9249510  18.0436220  45.9804090  18.9582220  16.9937810  45.6310340
  18.4006690  21.4153480  36.4781830  18.3181360  22.3584240  36.6196820
  18.0489750  21.2728390  35.5994180  33.6524090  16.3404170  52.3909010
  33.9769860  15.6093830  52.9166990  33.6880600  16.0217810  51.4890000
  19.3653280  18.9537980  43.4211060  19.0800200  18.5893650  44.2589680
  19.3032140  18.2218440  42.8074200  21.9230530  15.8207790  41.9738560
  21.7945160  15.8125690  42.9223480  21.0992550  16.1590880  41.6229570
  29.7824730  18.0314770  42.8487940  29.6592510  18.0500900  41.8997450
  30.7309290  18.0793710  42.9686340  22.5796470  19.0380530  36.1657070
  22.8822370  19.0447960  35.2576220  23.3191060  18.6878390  36.6624730
  33.4154900  18.5896180  53.8791150  34.2925080  18.5979580  54.2625150
  33.4275740  17.8527020  53.2683500  18.3525120  21.7201730  39.4902970
  17.4489200  21.9831930  39.3154630  18.8365740  21.9912900  38.7102930
  20.8952330  20.7767270  37.3997350  21.6044030  20.3550490  36.9144630
  20.1792270  20.8442500  36.7680700  20.5426490  16.8306600  36.4400000
  21.2654620  17.3715540  36.7581220  20.8151010  16.5570020  35.5641540
  20.2318680  16.0812790  46.3422620  20.8794870  15.5310170  45.9017780
  20.6520520  16.3355940  47.1638430  34.1271020  16.2754150  49.6992260
  34.7643240  16.8888290  50.0651450  34.2745910  16.3114810  48.7541490
  19.9850680  16.2368460  49.0847940  19.6365500  16.6932280  49.8506120
  19.6538380  15.3425590  49.1670370  20.6571320  15.7644660  52.3598710
  21.2054310  15.5832710  51.5964820  20.7226630  14.9738770  52.8955020
  30.8758100  15.6482540  48.5728940  30.0017940  15.9817650  48.3701870
  30.7668850  15.1755720  49.3980810  31.7830080  17.8553410  49.9570660
  31.4543440  17.0405170  49.5772390  32.7312380  17.8123220  49.8336350
  28.6232920  16.5652380  47.5121850  27.8404710  17.0397880  47.7918610
  28.3295850  15.6607210  47.4035030  19.9673330  16.8699860  40.0335570
  20.7252690  16.9828740  39.4599600  19.5050500  17.7069060  39.9879000
  26.5087140  18.9839130  43.0237880  25.6961650  18.6096020  42.6833760
  27.0128780  18.2284210  43.3259070  22.3398480  17.3963910  38.5737540
  22.8691240  16.6093710  38.4445490  22.9726800  18.0755100  38.8073070
  24.5336320  17.1339050  41.6282930  23.9039060  16.4326360  41.7953060
  23.9941460  17.8943180  41.4116090  31.2607340  15.8276610  54.6415890
  31.1472790  16.1471220  55.5367410  32.0777080  16.2289120  54.3453170
  30.1665490  23.8469080  25.0050630  30.0859540  22.9323690  24.7342340
  29.7529910  24.3436150  24.2990340  28.2983530  25.6248100  26.8859900
  27.5225630  25.1448540  27.1758470  28.9496460  24.9453750  26.7116060
  32.3190960  30.0308290  25.6659030  31.8572490  29.2595530  25.9946200
  33.1316510  30.0574360  26.1711480  20.7241310  20.8969800  21.5478050
  19.8358010  21.2385770  21.4457930  21.0082500  20.6970120  20.6558880
  18.6874320  23.4975450  27.4317750  19.2590430  22.7297650  27.4321390
  18.6875860  23.7964210  26.5224360  28.5454270  32.3166300  25.2863020
  27.9265710  32.7723800  24.7157460  29.4006050  32.4717760  24.8852720
  19.9299190  18.9059810  29.2186680  19.7502030  18.0085560  29.4989440
  19.5279270  19.4531680  29.8933630  28.7697690  21.1075670  27.1198990
  29.1462510  20.2347550  27.0072660  28.6717200  21.4434370  26.2289430
  22.9002700  19.4801300  22.5816430  23.0069450  20.3805030  22.8885190
  21.9895060  19.4319270  22.2911080  32.5521810  18.6026110  24.0527330
  33.3731430  18.1122680  24.0952810  32.5855890  19.1923770  24.8059170
  20.5485860  21.4020310  27.8269020  21.2295970  21.6658680  28.4456420
  20.2333910  20.5621180  28.1607030  24.7410430  22.4487670  26.9141610
  25.2488650  22.9468640  27.5546630  25.2723670  21.6722870  26.7380970
  36.8421360  20.6192860  30.6170960  36.1373530  21.0074570  30.0986070
  37.1079280  21.3143150  31.2191890  23.0246530  17.0886230  31.1805030
  23.0264970  17.6058620  30.3750930  22.1950840  16.6116410  31.1574960
  29.4117620  27.2005540  22.6794930  28.7934890  27.6654990  22.1157650
  29.9240870  27.8933020  23.0964440  32.7883290  20.5426490  26.8254870
  32.0838860  20.8311380  27.4057980  33.1495450  21.3526600  26.4654430
  22.7061860  18.7996190  29.1875480  23.0478670  19.6438240  28.8929350
  21.7677670  18.9479930  29.3040820  18.7800820  27.8862070  20.0534560
  18.4028800  28.3749170  19.3219460  19.0373890  28.5587350  20.6841090
  34.4046070  30.1601620  29.0882350  33.7209590  30.8300730  29.0799020
  34.9440360  30.3582270  28.3227210  35.8570210  19.9881280  27.2164080
  34.9095120  20.0220260  27.3479510  36.1820200  20.8020230  27.6013440
  26.3889750  16.2878460  25.5120070  26.6964730  15.7325350  24.7955570
  25.4590450  16.4222920  25.3293060  31.9404810  32.0045750  27.8027530
  31.9531970  31.6008040  26.9349790  31.3880030  32.7793040  27.6988960
  33.2350230  28.7261970  22.8917700  33.1246560  27.7836300  23.0167120
  33.2318480  29.0877610  23.7780460  31.3390250  26.9075590  29.1310140
  31.7559040  26.6935700  28.2963600  32.0630070  27.1648380  29.7018760
  28.7770510  24.3527290  22.2480190  27.8499790  24.2864670  22.4768660
  28.9295330  25.2907420  22.1335430  28.7639590  20.6244290  19.2447350
  27.8243260  20.7858250  19.3299810  29.0822850  21.3429970  18.6983340
  35.2852350  25.3062810  29.2226380  34.4570980  25.3755900  28.7476510
  35.8802830  25.8917120  28.7542210  32.8067800  25.9147590  22.7515440
  32.1880220  25.5767140  22.1041740  32.7892250  25.2707350  23.4594630
  32.2494360  22.0932130  30.1681250  31.8365540  22.9185840  30.4221240
  31.5170310  21.5077170  29.9757610  24.3827150  24.8792030  25.0299920
  23.9784150  24.1669280  24.5345820  24.4690270  24.5345270  25.9187960
  23.0955770  21.6535240  28.8098960  23.6470360  21.7630580  28.0352210
  23.6099280  22.0272840  29.5254190  30.9832500  25.1534400  19.7588190
  31.4225780  24.3156830  19.6126010  31.6960920  25.7863800  19.8452330
  29.0927880  30.0930470  23.7269430  29.5323790  30.8354800  23.3124820
  29.0314770  30.3357040  24.6508390  34.5649640  16.4077210  18.0729230
  34.2522300  16.5004040  18.9728300  35.3262110  16.9858240  18.0226660
  21.0831780  23.7737010  22.5306570  20.9629380  24.4999100  21.9187840
  20.7732670  23.0039920  22.0534480  19.9664780  28.6452340  24.7481390
  19.5592860  28.7866930  23.8934990  20.8577790  28.3612500  24.5452600
  35.9226920  29.0916250  33.0853630  36.0489980  28.8528130  32.1670810
  35.9648300  28.2600790  33.5575710  31.7598060  33.0799590  21.0832440
  31.5999200  32.7902530  21.9814270  31.5944770  32.3039720  20.5477670
  24.2386440  32.8598120  22.8604060  24.0628920  31.9433660  22.6471860
  23.3842180  33.2185410  23.1001860  31.4624190  30.5887150  19.6430440
  30.7689350  30.5864440  18.9832720  32.2047050  30.1646470  19.2124610
  31.0274120  32.2149860  23.7178930  31.4831070  31.4339240  24.0317550
  31.3666640  32.9256680  24.2620110  35.7750930  21.1448710  34.0503370
  35.1595200  21.6528380  33.5218830  35.4547350  20.2447040  33.9929310
  23.5495440  17.1172080  25.9130240  23.1063590  17.8981620  25.5814760
  24.1080430  17.4401970  26.6201180  32.8369760  21.2049550  32.6462220
  31.9863350  20.9055300  32.9671290  32.6771550  21.4491560  31.7346040
  26.6654260  16.7382780  20.7936070  26.0408440  16.7342650  21.5189380
  26.5784380  15.8713740  20.3972040  25.5871340  17.6619410  27.7719840
  25.8843670  18.5682240  27.6911860  26.1356900  17.1738190  27.1579410
  23.3409660  22.2405650  23.6411490  23.1150580  22.0242820  24.5458110
  22.5602190  22.6734110  23.2957460  30.5707420  22.2469020  22.2402140
  29.9716310  22.9704820  22.0565760  31.1187030  22.1845800  21.4578590
  29.1772290  20.8832560  24.2705420  29.5701860  21.2004760  23.4574110
  29.5389140  20.0044440  24.3849940  20.9119410  19.5504900  32.4605540
  20.5182800  20.3980110  32.6678320  20.2237810  18.9131270  32.6514180
  18.2136460  17.4733360  26.4935620  17.9249510  18.0436220  27.2060600
  18.9582220  16.9937810  26.8566850  18.4006690  21.4153480  17.7038340
  18.3181360  22.3584240  17.8453330  18.0489750  21.2728390  16.8250690
  29.7627430  23.4738310  28.3656200  29.0308550  23.9825120  28.7146300
  29.3651770  22.6568290  28.0644980  26.2004820  20.1492510  26.7708690
  26.2040880  19.7082460  25.9213230  27.0955940  20.4709840  26.8780510
  22.0507200  20.0319000  25.7302900  21.7107250  20.5094230  26.4869950
  21.2884520  19.5784120  25.3704000  26.2624970  21.1504590  19.7615450
  26.3837790  21.1091070  20.7101270  25.8773480  22.0128740  19.6062180
  30.2253340  18.9271990  27.7779140  30.2426080  19.3780640  28.6220990
  29.9768920  18.0277630  27.9912580  25.2746470  23.4605730  19.1598750
  24.7063370  23.0123980  18.5334660  25.9835470  23.8198510  18.6263900
  33.6524090  16.3404170  33.6165520  33.9769860  15.6093830  34.1423500
  33.6880600  16.0217810  32.7146510  26.5012790  24.2094290  28.5174100
  26.8682920  23.7352860  29.2635440  26.3117850  25.0835860  28.8582440
  19.3653280  18.9537980  24.6467570  19.0800200  18.5893650  25.4846190
  19.3032140  18.2218440  24.0330710  22.8193950  27.4563920  21.4325160
  22.0456210  26.9161540  21.2723880  23.5488580  26.9370530  21.0942920
  33.5781930  26.4529280  27.2251550  34.2981050  26.9484570  26.8347660
  33.3763750  25.7747170  26.5805420  29.0391870  17.8467240  21.3680940
  28.2256480  17.3480410  21.2926250  28.8453820  18.6865490  20.9517290
  31.7540260  22.2186890  19.6643100  32.6419880  22.5304120  19.4894440
  31.7245350  21.3459140  19.2723680  27.7500850  28.3910580  20.3431270
  28.0916550  29.1352810  19.8474590  26.9213560  28.7041700  20.7056100
  34.0254530  23.5298730  19.1322960  33.9418250  23.9612950  18.2819400
  34.7448720  23.9897080  19.5649780  35.1028670  25.9866250  32.2092930
  34.3776860  26.5795030  32.0122320  35.6304130  25.9789790  31.4106300
  35.0541780  30.3840990  21.8605090  34.4117940  29.7296610  22.1348810
  34.6672440  30.7896080  21.0845760  30.6328260  27.7126420  25.7076780
  30.9852080  27.1154550  25.0478150  29.7490590  27.3870650  25.8785030
  26.7191540  28.4724110  23.1147190  27.4062670  29.0193320  23.4954780
  25.9323960  29.0164840  23.1496800  18.8583940  24.0896930  18.6064270
  19.7278790  24.3721730  18.8900190  18.3674260  24.9032800  18.4913080
  26.0218750  25.4770140  22.7272550  26.4781530  26.2875390  22.9532740
  25.6706960  25.1593280  23.5591040  21.9230530  15.8207790  23.1995070
  21.7945160  15.8125690  24.1479990  21.0992550  16.1590880  22.8486080
  33.4439160  29.2757450  18.3981440  33.2176740  28.5587890  18.9906080
  33.0535360  29.0269890  17.5603190  19.2255190  33.3024310  19.1725900
  19.5852830  33.9013650  18.5183170  19.0847530  33.8484200  19.9460930
  18.9224460  17.5798910  32.6601770  18.2082980  17.7795830  33.2654380
  19.3419500  16.8038480  33.0316570  33.0255410  27.1929390  20.0595600
  32.7377110  27.6542080  20.8473480  33.8207580  26.7327160  20.3279820
  25.2423810  30.6855510  19.9899570  25.2333910  31.4185200  19.3744080
  24.3222170  30.4387090  20.0826530  20.8430450  25.9070400  20.7346330
  20.2358400  26.6469300  20.7441630  21.3179800  25.9969760  19.9084530
  30.4163240  20.0721220  30.4103220  30.7844060  19.2516430  30.7382790
  29.5561440  20.1323110  30.8258870  33.7825270  19.0278160  21.2190780
  33.1538430  19.1323830  20.5049010  33.2877190  19.2474940  22.0084660
  28.2283410  30.7483750  18.6524760  28.3295390  30.5447740  17.7226740
  27.3285150  30.4942030  18.8572540  25.7509300  21.3064110  22.6348660
  25.0425450  21.7750450  23.0762270  26.0353780  20.6486120  23.2693850
  29.7824730  18.0314770  24.0744450  29.6592510  18.0500900  23.1253960
  30.7309290  18.0793710  24.1942850  26.8701520  33.2670070  23.3472430
  27.1243020  33.2291460  22.4251800  25.9214000  33.1403400  23.3400680
  23.9544320  19.6149190  20.0099370  24.8034850  20.0519340  19.9439560
  23.5875590  19.9269450  20.8371430  34.5832090  18.9428770  31.4769580
  34.0805690  19.6834170  31.8163390  35.3988750  19.3312770  31.1606370
  32.8754100  24.1861950  24.9230940  31.9344240  24.2012180  25.0978630
  33.1898170  23.3997910  25.3691240  22.8535740  25.8681550  18.4834900
  23.6199010  25.7562910  19.0460330  22.9310430  25.1719520  17.8311670
  21.5482500  23.3006620  19.1667790  21.6286090  22.3534130  19.2785190
  22.4402250  23.6313500  19.2728450  34.8779680  31.3570800  26.5985200
  35.0027100  32.1801970  27.0709010  35.7445240  31.1461530  26.2509350
  19.2342690  29.5175580  22.1443840  18.3082470  29.7596720  22.1349250
  19.6999120  30.3449840  22.0228590  25.4599520  32.6232320  18.0927900
  26.2528130  32.9121150  17.6409690  24.9403870  32.1924490  17.4140380
  34.5129690  31.8502450  19.5164640  34.2271200  31.4367590  18.7018820
  34.3149240  32.7790160  19.3965160  25.9776920  27.8435730  17.9570250
  25.8727560  27.2288080  18.6831630  25.8101140  27.3201620  17.1733260
  29.2179650  26.9055760  18.5612240  28.6689750  27.3525060  19.2054980
  29.8398910  26.4005010  19.0849910  24.8854770  25.8646680  20.4577540
  25.3071190  25.6986550  21.3008930  25.0105610  25.0546910  19.9632680
  27.3982410  24.8884290  17.7054640  27.9188070  24.1733310  17.3395790
  28.0450810  25.5270160  18.0055150  23.5354490  18.8105600  33.3445810
  23.4411360  18.1926350  32.6196680  22.9551880  19.5371890  33.1175720
  26.3015930  17.3678840  30.3773200  25.8533230  17.3903100  29.5318750
  25.6681130  16.9697860  30.9743500  23.7813670  21.9379910  17.4035700
  23.5802730  21.0747270  17.7649040  23.6105720  21.8513270  16.4657300
  31.2601980  16.7488140  19.9322580  31.5404270  15.9056040  20.2882000
  30.4867710  16.9811250  20.4461330  22.5796470  19.0380530  17.3913580
  22.8822370  19.0447960  16.4832730  23.3191060  18.6878390  17.8881240
  25.7981400  17.9815150  18.3769780  25.4503400  17.3039140  17.7972230
  25.9994170  17.5204660  19.1913170  27.9630440  32.9695900  19.9956380
  28.8581230  33.3080870  20.0175140  27.9948070  32.2475310  19.3680660
  21.6026600  28.3422950  18.2243380  22.0401470  28.8852620  18.8800960
  22.0874330  27.5169900  18.2339720  18.8172400  31.1311980  25.6763640
  19.1475410  30.2633040  25.4442280  19.2463400  31.3370500  26.5068600
  23.4134320  29.4620990  23.3365610  23.1129860  29.3385960  24.2369520
  23.3071810  28.6029580  22.9281340  36.1826240  29.2417390  18.0392290
  35.3519200  29.3094040  18.5099520  36.3598070  30.1321510  17.7359150
  35.6382700  25.9864870  20.5426490  36.4001610  26.5561520  20.6486180
  35.6537070  25.4192070  21.3134800  19.1387040  24.5102800  24.7734150
  18.4835880  24.2414440  24.1293850  19.9764990  24.4007280  24.3236130
  36.6442670  26.8414970  25.3868420  37.0151500  26.0582290  24.9804390
  37.2844600  27.5304070  25.2085720  35.6901870  26.2799240  17.6999010
  35.9650710  27.1878120  17.5718230  35.5012610  26.2161770  18.6361000
  32.0877480  19.3044090  18.9952640  32.5062360  19.1175070  18.1549300
  31.7813540  18.4523140  19.3055570  35.5867210  24.2168230  22.6928440
  35.2110810  23.4496160  22.2609730  34.8570330  24.5990930  23.1803370
  34.9766830  23.3639750  32.3267960  34.7452920  23.1352500  31.4265910
  35.2371380  24.2839300  32.2812850  19.7278970  21.8064460  33.2195910
  18.8335020  21.7731220  33.5589620  20.2676520  22.0051250  33.9847160
  33.4154900  18.5896180  35.1047660  34.2925080  18.5979580  35.4881660
  33.4275740  17.8527020  34.4940010  18.3525120  21.7201730  20.7159480
  17.4489200  21.9831930  20.5411140  18.8365740  21.9912900  19.9359440
  34.8618170  22.4425720  25.9935680  35.3855650  21.9488370  25.3625850
  35.4477590  22.5776080  26.7383250  35.0407890  22.5265590  29.5155230
  34.0910600  22.4929130  29.6300220  35.2220900  23.4365700  29.2805000
  20.8952330  20.7767270  18.6253860  21.6044030  20.3550490  18.1401140
  20.1792270  20.8442500  17.9937210  20.5426490  16.8306600  17.6656510
  21.2654620  17.3715540  17.9837730  20.8151010  16.5570020  16.7898050
  34.3518140  21.6999070  21.9328090  34.8477260  21.4669940  22.7176970
  34.1534210  20.8610910  21.5165730  20.2318680  16.0812790  27.5679130
  20.8794870  15.5310170  27.1274290  20.6520520  16.3355940  28.3894940
  35.7805300  20.3360020  24.4665770  35.6704580  20.1816060  25.4048040
  36.5412890  19.8080960  24.2241180  34.1271020  16.2754150  30.9248770
  34.7643240  16.8888290  31.2907960  34.2745910  16.3114810  29.9798000
  36.6695570  18.1667940  17.7071910  37.5944880  18.0349120  17.4990200
  36.6471360  18.2460760  18.6608360  36.7434060  18.9378600  20.3328620
  35.9485560  18.8723720  20.8621530  36.9477340  19.8729240  20.3213970
  33.6852480  32.9770150  24.3267010  34.2811550  32.6554720  23.6501430
  33.9430630  32.5041970  25.1180280  19.9850680  16.2368460  30.3104450
  19.6365500  16.6932280  31.0762630  19.6538380  15.3425590  30.3926880
  27.4975500  17.4280340  33.8323870  27.4364390  18.0202170  34.5819280
  28.4375880  17.3206300  33.6874130  30.1350060  17.0850400  33.4716160
  30.7490470  17.4029690  32.8097240  30.6799620  16.5998990  34.0912020
  20.6571320  15.7644660  33.5855220  21.2054310  15.5832710  32.8221330
  20.7226630  14.9738770  34.1211530  30.8758100  15.6482540  29.7985450
  30.0017940  15.9817650  29.5958380  30.7668850  15.1755720  30.6237320
  31.7830080  17.8553410  31.1827170  31.4543440  17.0405170  30.8028900
  32.7312380  17.8123220  31.0592860  34.2364690  33.6265450  28.1564740
  33.7767660  34.3781260  27.7822760  33.6077150  32.9071920  28.0979540
  28.6232920  16.5652380  28.7378360  27.8404710  17.0397880  29.0175120
  28.3295850  15.6607210  28.6291540  33.1753990  17.2675480  26.7827450
  33.6162080  17.2120580  25.9349050  32.9061580  18.1833490  26.8537630
  35.0392560  16.8990720  24.7936270  34.9780960  15.9551940  24.6467290
  35.8184590  17.0070810  25.3389730  19.3445310  33.0383080  23.7560220
  19.1767350  32.4053760  24.4542110  18.4779820  33.2442480  23.4054410
  19.9673330  16.8699860  21.2592080  20.7252690  16.9828740  20.6856110
  19.5050500  17.7069060  21.2135510  26.5087140  18.9839130  24.2494390
  25.6961650  18.6096020  23.9090270  27.0128780  18.2284210  24.5515580
  31.0112120  15.6481580  25.4877460  31.6141490  16.2201790  25.9625980
  30.2705110  16.2121020  25.2651360  34.1546720  16.0503140  20.7617740
  34.3497350  16.9486590  21.0285170  33.3676590  15.8190220  21.2550690
  20.9508010  31.7316310  21.2010360  20.4255630  32.1124340  20.4972320
  20.8752590  32.3567080  21.9220070  22.3398480  17.3963910  19.7994050
  22.8691240  16.6093710  19.6702000  22.9726800  18.0755100  20.0329580
  24.5336320  17.1339050  22.8539440  23.9039060  16.4326360  23.0209570
  23.9941460  17.8943180  22.6372600  35.7073330  33.2903850  22.5224300
  35.8825520  32.6041590  21.8785220  35.0094900  33.8150900  22.1300970
  24.6591880  16.4123030  35.2891930  24.3776150  16.9156630  34.5252750
  25.0411580  15.6144780  34.9234060  23.5500980  33.6798690  20.0759610
  24.2819800  33.3957970  19.5283500  23.8094650  33.4411970  20.9658990
  22.7115770  29.7963420  20.0805940  22.0824650  30.2648520  20.6291770
  22.8263600  28.9512640  20.5152130  31.2607340  15.8276610  35.8672400
  31.1472790  16.1471220  36.7623920  32.0777080  16.2289120  35.5709680
  30.1665490  23.8469080   6.2307140  30.0859540  22.9323690   5.9598850
  29.7529910  24.3436150   5.5246850  28.2983530  25.6248100   8.1116410
  27.5225630  25.1448540   8.4014980  28.9496460  24.9453750   7.9372570
  22.3149360  25.9367910   8.9892170  21.4834240  25.6816620   9.3888680
  22.9230340  26.0078680   9.7250090  32.3190960  30.0308290   6.8915540
  31.8572490  29.2595530   7.2202710  33.1316510  30.0574360   7.3967990
  22.2950620  29.9708000   9.1850190  22.5978660  29.0805740   9.0060410
  23.0394210  30.5278220   8.9572440  20.7241310  20.8969800   2.7734560
  19.8358010  21.2385770   2.6714440  21.0082500  20.6970120   1.8815390
  18.6874320  23.4975450   8.6574260  19.2590430  22.7297650   8.6577900
  18.6875860  23.7964210   7.7480870  28.5454270  32.3166300   6.5119530
  27.9265710  32.7723800   5.9413970  29.4006050  32.4717760   6.1109230
  27.7392520  28.3005290   8.1186570  27.6700800  27.3595230   7.9575700
  28.5012380  28.3906700   8.6909140  19.9299190  18.9059810  10.4443190
  19.7502030  18.0085560  10.7245950  19.5279270  19.4531680  11.1190140
  28.7697690  21.1075670   8.3455500  29.1462510  20.2347550   8.2329170
  28.6717200  21.4434370   7.4545940  22.9002700  19.4801300   3.8072940
  23.0069450  20.3805030   4.1141700  21.9895060  19.4319270   3.5167590
  32.5521810  18.6026110   5.2783840  33.3731430  18.1122680   5.3209320
  32.5855890  19.1923770   6.0315680  20.5485860  21.4020310   9.0525530
  21.2295970  21.6658680   9.6712930  20.2333910  20.5621180   9.3863540
  24.7410430  22.4487670   8.1398120  25.2488650  22.9468640   8.7803140
  25.2723670  21.6722870   7.9637480  36.8421360  20.6192860  11.8427470
  36.1373530  21.0074570  11.3242580  37.1079280  21.3143150  12.4448400
  23.0246530  17.0886230  12.4061540  23.0264970  17.6058620  11.6007440
  22.1950840  16.6116410  12.3831470  29.4117620  27.2005540   3.9051440
  28.7934890  27.6654990   3.3414160  29.9240870  27.8933020   4.3220950
  24.2749380  26.7281410  10.5835040  23.9418760  27.3550330  11.2256110
  24.4516060  27.2543290   9.8036710  32.7883290  20.5426490   8.0511380
  32.0838860  20.8311380   8.6314490  33.1495450  21.3526600   7.6910940
  22.7061860  18.7996190  10.4131990  23.0478670  19.6438240  10.1185860
  21.7677670  18.9479930  10.5297330  23.4868480  28.6962210  12.3984220
  24.1042480  29.3713290  12.1168670  22.6261600  29.1050190  12.3071720
  34.4046070  30.1601620  10.3138860  33.7209590  30.8300730  10.3055530
  34.9440360  30.3582270   9.5483720  35.8570210  19.9881280   8.4420590
  34.9095120  20.0220260   8.5736020  36.1820200  20.8020230   8.8269950
  26.3889750  16.2878460   6.7376580  26.6964730  15.7325350   6.0212080
  25.4590450  16.4222920   6.5549570  31.9404810  32.0045750   9.0284040
  31.9531970  31.6008040   8.1606300  31.3880030  32.7793040   8.9245470
  33.2350230  28.7261970   4.1174210  33.1246560  27.7836300   4.2423630
  33.2318480  29.0877610   5.0036970  31.3390250  26.9075590  10.3566650
  31.7559040  26.6935700   9.5220110  32.0630070  27.1648380  10.9275270
  28.7770510  24.3527290   3.4736700  27.8499790  24.2864670   3.7025170
  28.9295330  25.2907420   3.3591940  35.2852350  25.3062810  10.4482890
  34.4570980  25.3755900   9.9733020  35.8802830  25.8917120   9.9798720
  32.8067800  25.9147590   3.9771950  32.1880220  25.5767140   3.3298250
  32.7892250  25.2707350   4.6851140  32.2494360  22.0932130  11.3937760
  31.8365540  22.9185840  11.6477750  31.5170310  21.5077170  11.2014120
  24.3827150  24.8792030   6.2556430  23.9784150  24.1669280   5.7602330
  24.4690270  24.5345270   7.1444470  24.8508850  28.5659590   8.4195640
  24.5537140  27.9605060   7.7403420  25.8008670  28.6036900   8.3085000
  23.0955770  21.6535240  10.0355470  23.6470360  21.7630580   9.2608720
  23.6099280  22.0272840  10.7510700  32.9394460  32.1391460  12.0818740
  32.4625020  32.9463650  11.8891350  32.2556250  31.4869790  12.2344950
  23.9427280  28.3041280  15.0703440  23.0455810  28.5281250  15.3176840
  23.9680150  28.4276220  14.1214840  22.7698500  25.1754600  13.6460810
  22.6306270  26.0477400  14.0148210  21.8879860  24.8327410  13.5008750
  29.0927880  30.0930470   4.9525940  29.5323790  30.8354800   4.5381330
  29.0314770  30.3357040   5.8764900  24.5678850  31.1176300  15.8545960
  24.5394280  31.5219250  14.9874390  24.4043820  30.1886660  15.6917560
  21.0831780  23.7737010   3.7563080  20.9629380  24.4999100   3.1444350
  20.7732670  23.0039920   3.2790990  36.5193670  31.9003400  17.1510130
  36.9953390  32.3786290  17.8299210  37.1400830  31.8320890  16.4255630
  18.7217150  26.9452150   9.5631720  18.7997570  27.0800920   8.6187440
  19.3358830  26.2368040   9.7559840  19.9664780  28.6452340   5.9737900
  19.5592860  28.7866930   5.1191500  20.8577790  28.3612500   5.7709110
  35.9226920  29.0916250  14.3110140  36.0489980  28.8528130  13.3927320
  35.9648300  28.2600790  14.7832220  29.7843660  32.7944250  12.8804950
  30.2988330  32.7052260  13.6827380  28.9412740  33.1403950  13.1732860
  31.7598060  33.0799590   2.3088950  31.5999200  32.7902530   3.2070780
  31.5944770  32.3039720   1.7734180  24.2386440  32.8598120   4.0860570
  24.0628920  31.9433660   3.8728370  23.3842180  33.2185410   4.3258370
  31.0274120  32.2149860   4.9435440  31.4831070  31.4339240   5.2574060
  31.3666640  32.9256680   5.4876620  35.7750930  21.1448710  15.2759880
  35.1595200  21.6528380  14.7475340  35.4547350  20.2447040  15.2185820
  18.7776670  27.9866320  12.1026180  18.9407710  27.5171680  11.2845550
  19.2429120  27.4789880  12.7675020  23.5495440  17.1172080   7.1386750
  23.1063590  17.8981620   6.8071270  24.1080430  17.4401970   7.8457690
  27.8365250  19.9840600  12.7422070  27.3744620  20.1923620  13.5542010
  27.4343360  19.1699950  12.4392740  32.8369760  21.2049550  13.8718730
  31.9863350  20.9055300  14.1927800  32.6771550  21.4491560  12.9602550
  29.9319470  22.7051300  15.9717520  30.2572880  21.8715050  15.6319750
  30.7199800  23.2279820  16.1195850  25.5871340  17.6619410   8.9976350
  25.8843670  18.5682240   8.9168370  26.1356900  17.1738190   8.3835920
  23.3409660  22.2405650   4.8668000  23.1150580  22.0242820   5.7714620
  22.5602190  22.6734110   4.5213970  30.5707420  22.2469020   3.4658650
  29.9716310  22.9704820   3.2822270  31.1187030  22.1845800   2.6835100
  25.7808870  23.1391230  15.5328270  25.6852470  22.1985960  15.3828670
  26.6240850  23.3606300  15.1376340  29.1772290  20.8832560   5.4961930
  29.5701860  21.2004760   4.6830620  29.5389140  20.0044440   5.6106450
  20.9119410  19.5504900  13.6862050  20.5182800  20.3980110  13.8934830
  20.2237810  18.9131270  13.8770690  27.4864460  19.6339870  16.7558790
  26.7962780  19.4412070  17.3904880  28.2296760  19.9174510  17.2883090
  18.2136460  17.4733360   7.7192130  17.9249510  18.0436220   8.4317110
  18.9582220  16.9937810   8.0823360  29.7627430  23.4738310   9.5912710
  29.0308550  23.9825120   9.9402810  29.3651770  22.6568290   9.2901490
  26.2004820  20.1492510   7.9965200  26.2040880  19.7082460   7.1469740
  27.0955940  20.4709840   8.1037020  22.0507200  20.0319000   6.9559410
  21.7107250  20.5094230   7.7126460  21.2884520  19.5784120   6.5960510
  30.2253340  18.9271990   9.0035650  30.2426080  19.3780640   9.8477500
  29.9768920  18.0277630   9.2169090  33.6524090  16.3404170  14.8422030
  33.9769860  15.6093830  15.3680010  33.6880600  16.0217810  13.9403020
  20.3515650  27.3617750  14.2621990  19.9670440  26.7211420  14.8604950
  20.6627840  28.0653870  14.8316720  26.5012790  24.2094290   9.7430610
  26.8682920  23.7352860  10.4891950  26.3117850  25.0835860  10.0838950
  19.3653280  18.9537980   5.8724080  19.0800200  18.5893650   6.7102700
  19.3032140  18.2218440   5.2587220  24.2912160  23.2502930  12.0614820
  23.9869230  24.1294910  12.2865180  25.2458620  23.3102720  12.0972260
  22.8193950  27.4563920   2.6581670  22.0456210  26.9161540   2.4980390
  23.5488580  26.9370530   2.3199430  33.5781930  26.4529280   8.4508060
  34.2981050  26.9484570   8.0604170  33.3763750  25.7747170   7.8061930
  29.0391870  17.8467240   2.5937450  28.2256480  17.3480410   2.5182760
  28.8453820  18.6865490   2.1773800  28.9600730  26.5238340  14.3377060
  28.8938040  25.6034010  14.0834650  28.3305870  26.6213780  15.0521700
  22.8631350  27.1244300   6.2960480  23.3810020  26.3212560   6.2417370
  22.4115370  27.0623440   7.1377310  20.3475890  24.0905670  13.2086180
  19.9890830  24.7559520  13.7959520  20.0530450  23.2589220  13.5798800
  23.5489010  24.5489910  16.0925730  23.2489150  24.6947090  15.1953550
  24.3200250  23.9895200  15.9999120  28.8917460  29.3458910  14.0880860
  28.9062000  28.4139870  13.8699770  28.1842560  29.4318670  14.7270630
  35.1028670  25.9866250  13.4349440  34.3776860  26.5795030  13.2378830
  35.6304130  25.9789790  12.6362810  35.0541780  30.3840990   3.0861600
  34.4117940  29.7296610   3.3605320  34.6672440  30.7896080   2.3102270
  30.6328260  27.7126420   6.9333290  30.9852080  27.1154550   6.2734660
  29.7490590  27.3870650   7.1041540  26.7191540  28.4724110   4.3403700
  27.4062670  29.0193320   4.7211290  25.9323960  29.0164840   4.3753310
  26.0218750  25.4770140   3.9529060  26.4781530  26.2875390   4.1789250
  25.6706960  25.1593280   4.7847550  28.3251360  30.9876480  11.1821360
  28.9693580  31.1935860  11.8594780  28.6880800  30.2264880  10.7292210
  21.9230530  15.8207790   4.4251580  21.7945160  15.8125690   5.3736500
  21.0992550  16.1590880   4.0742590  29.5983440  28.9908830   9.8998810
  30.2405670  28.2901990  10.0130980  30.1232790  29.7707270   9.7195700
  31.3721060  29.7903730  13.1034870  31.7077300  30.3770420  13.7812790
  30.4521400  29.6596440  13.3332660  18.9224460  17.5798910  13.8858280
  18.2082980  17.7795830  14.4910890  19.3419500  16.8038480  14.2573080
  19.2097050  31.5679170  14.8724810  19.3188170  30.6273910  14.7320200
  18.5577610  31.8333920  14.2238540  27.2009640  29.8395060  16.2722930
  26.8806510  29.1204300  16.8168620  26.5268000  30.5150130  16.3458990
  30.4163240  20.0721220  11.6359730  30.7844060  19.2516430  11.9639300
  29.5561440  20.1323110  12.0515380  33.7825270  19.0278160   2.4447290
  33.1538430  19.1323830   1.7305520  33.2877190  19.2474940   3.2341170
  25.7509300  21.3064110   3.8605170  25.0425450  21.7750450   4.3018780
  26.0353780  20.6486120   4.4950360  27.3765230  22.7260810  11.8597700
  27.8750480  23.2006630  12.5249550  27.5188180  21.8024330  12.0667730
  29.7824730  18.0314770   5.3000960  29.6592510  18.0500900   4.3510470
  30.7309290  18.0793710   5.4199360  26.8701520  33.2670070   4.5728940
  27.1243020  33.2291460   3.6508310  25.9214000  33.1403400   4.5657190
  34.5832090  18.9428770  12.7026090  34.0805690  19.6834170  13.0419900
  35.3988750  19.3312770  12.3862880  32.8754100  24.1861950   6.1487450
  31.9344240  24.2012180   6.3235140  33.1898170  23.3997910   6.5947750
  34.8779680  31.3570800   7.8241710  35.0027100  32.1801970   8.2965520
  35.7445240  31.1461530   7.4765860  22.3497210  33.4502010   7.4958840
  23.0859690  32.9017470   7.7667410  22.7338130  34.3158020   7.3564830
  19.2342690  29.5175580   3.3700350  18.3082470  29.7596720   3.3605760
  19.6999120  30.3449840   3.2485100  21.3555490  32.6348080  16.6844420
  22.1568220  32.9560130  17.0979820  20.8407310  32.2743660  17.4064330
  30.1920120  28.7427950  16.6319830  29.5858280  28.7659550  15.8915580
  29.8874230  28.0110990  17.1687080  31.6220490  32.4708240  15.2429240
  32.5742240  32.3866260  15.1929480  31.4748710  33.1349950  15.9163030
  19.0753300  25.1221540  15.6280470  19.5792320  24.5428820  16.1996700
  18.3360720  25.4061770  16.1656840  26.1291240  26.5292530  15.1615990
  25.3636910  27.0977530  15.0770660  26.3107200  26.2368740  14.2684220
  33.2714590  28.2597860  15.7191010  34.0124060  28.5973620  15.2158470
  32.5087270  28.4289920  15.1660780  21.1076380  23.2651130  16.5230540
  21.1481720  22.9665000  17.4315770  21.9621880  23.6658740  16.3638060
  23.0482190  21.8443230  14.4905030  22.5178650  21.3534180  13.8628370
  23.7170260  22.2727430  13.9562960  31.9460250  26.3112690  14.2546220
  32.3601270  26.4657770  15.1036640  31.0111250  26.4367910  14.4172000
  32.4182420  23.6508850  16.2585370  33.0003190  22.8961170  16.1705850
  32.5944190  24.1816290  15.4816850  23.5354490  18.8105600  14.5702320
  23.4411360  18.1926350  13.8453190  22.9551880  19.5371890  14.3432230
  26.3015930  17.3678840  11.6029710  25.8533230  17.3903100  10.7575260
  25.6681130  16.9697860  12.2000010  26.7075480  26.2633170  12.2242150
  27.1263590  27.1065900  12.0518390  25.7884110  26.4005210  11.9948930
  29.0439380  23.9949350  13.6079990  29.1635590  23.3990490  14.3474830
  29.9033380  24.0319040  13.1881290  31.3827280  24.5486540  12.1842500
  30.8562500  25.0729160  11.5807640  31.7258620  25.1813930  12.8152230
  24.5582900  32.5686180  13.3399880  24.0203990  33.2932240  13.0208580
  24.8116860  32.0916520  12.5497220  25.8108150  20.5370700  14.8655810
  26.4007840  20.2286550  15.5533630  24.9928390  20.0650450  15.0215710
  30.6301580  20.1536510  15.0988830  29.9417100  19.4918050  15.0338820
  31.3507600  19.7074780  15.5437290  27.4145110  33.8037390  13.5986530
  27.3403810  34.7072530  13.9058900  26.5123950  33.4849290  13.5708600
  18.8172400  31.1311980   6.9020150  19.1475410  30.2633040   6.6698790
  19.2463400  31.3370500   7.7325110  23.4134320  29.4620990   4.5622120
  23.1129860  29.3385960   5.4626030  23.3071810  28.6029580   4.1537850
  19.3062610  31.9982570   9.6401780  18.8693600  32.1783370  10.4725930
  19.8740290  32.7557190   9.4983500  34.9424790  31.4999570  13.9279090
  34.3426780  31.5592130  13.1843010  35.0718690  30.5604550  14.0575940
  35.6382700  25.9864870   1.7683000  36.4001610  26.5561520   1.8742690
  35.6537070  25.4192070   2.5391310  19.1387040  24.5102800   5.9990660
  18.4835880  24.2414440   5.3550360  19.9764990  24.4007280   5.5492640
  36.6442670  26.8414970   6.6124930  37.0151500  26.0582290   6.2060900
  37.2844600  27.5304070   6.4342230  33.6276430  28.2251550  12.0255250
  32.8136270  28.6548710  12.2881040  34.0350630  28.8369960  11.4124300
  35.5867210  24.2168230   3.9184950  35.2110810  23.4496160   3.4866240
  34.8570330  24.5990930   4.4059880  20.1762970  24.8955370  10.5394000
  20.5436010  24.8082770  11.4190020  19.6073790  24.1321920  10.4400860
  34.9766830  23.3639750  13.5524470  34.7452920  23.1352500  12.6522420
  35.2371380  24.2839300  13.5069360  19.7278970  21.8064460  14.4452420
  18.8335020  21.7731220  14.7846130  20.2676520  22.0051250  15.2103670
  33.4154900  18.5896180  16.3304170  34.2925080  18.5979580  16.7138170
  33.4275740  17.8527020  15.7196520  34.8618170  22.4425720   7.2192190
  35.3855650  21.9488370   6.5882360  35.4477590  22.5776080   7.9639760
  35.0407890  22.5265590  10.7411740  34.0910600  22.4929130  10.8556730
  35.2220900  23.4365700  10.5061510  34.3518140  21.6999070   3.1584600
  34.8477260  21.4669940   3.9433480  34.1534210  20.8610910   2.7422240
  20.2318680  16.0812790   8.7935640  20.8794870  15.5310170   8.3530800
  20.6520520  16.3355940   9.6151450  35.7805300  20.3360020   5.6922280
  35.6704580  20.1816060   6.6304550  36.5412890  19.8080960   5.4497690
  34.1271020  16.2754150  12.1505280  34.7643240  16.8888290  12.5164470
  34.2745910  16.3114810  11.2054510  33.6852480  32.9770150   5.5523520
  34.2811550  32.6554720   4.8757940  33.9430630  32.5041970   6.3436790
  19.9850680  16.2368460  11.5360960  19.6365500  16.6932280  12.3019140
  19.6538380  15.3425590  11.6183390  21.5915050  29.4088060  15.7014150
  21.5484680  29.0380970  16.5828610  21.7226060  30.3465630  15.8415970
  25.2921080  30.9647650  11.3023870  25.0512440  31.2322210  10.4154390
  26.2323720  31.1353380  11.3574730  27.4975500  17.4280340  15.0580380
  27.4364390  18.0202170  15.8075790  28.4375880  17.3206300  14.9130640
  30.1350060  17.0850400  14.6972670  30.7490470  17.4029690  14.0353750
  30.6799620  16.5998990  15.3168530  36.5525240  32.9842030  12.1034510
  36.0583520  33.3810900  11.3861640  35.9438530  32.3591240  12.4971790
  20.6571320  15.7644660  14.8111730  21.2054310  15.5832710  14.0477840
  20.7226630  14.9738770  15.3468040  21.4303080  32.3550310  12.8211930
  20.8363400  32.2235010  13.5601970  21.4226920  31.5188450  12.3554030
  30.8758100  15.6482540  11.0241960  30.0017940  15.9817650  10.8214890
  30.7668850  15.1755720  11.8493830  31.7830080  17.8553410  12.4083680
  31.4543440  17.0405170  12.0285410  32.7312380  17.8123220  12.2849370
  34.2364690  33.6265450   9.3821250  33.7767660  34.3781260   9.0079270
  33.6077150  32.9071920   9.3236050  21.0615310  29.7208690  11.7719970
  20.3349370  29.1013980  11.7045920  21.1224460  30.1149300  10.9018050
  24.6660410  31.9353690   8.5569380  25.1825430  31.3241050   8.0317640
  25.3157790  32.4382470   9.0480390  27.4055910  32.8262180   9.3838360
  27.6933720  32.5716480   8.5071370  27.9179130  32.2739540   9.9743930
  28.6232920  16.5652380   9.9634870  27.8404710  17.0397880  10.2431630
  28.3295850  15.6607210   9.8548050  33.1753990  17.2675480   8.0083960
  33.6162080  17.2120580   7.1605560  32.9061580  18.1833490   8.0794140
  35.0392560  16.8990720   6.0192780  34.9780960  15.9551940   5.8723800
  35.8184590  17.0070810   6.5646240  19.3445310  33.0383080   4.9816730
  19.1767350  32.4053760   5.6798620  18.4779820  33.2442480   4.6310920
  19.9673330  16.8699860   2.4848590  20.7252690  16.9828740   1.9112620
  19.5050500  17.7069060   2.4392020  26.5087140  18.9839130   5.4750900
  25.6961650  18.6096020   5.1346780  27.0128780  18.2284210   5.7772090
  31.0112120  15.6481580   6.7133970  31.6141490  16.2201790   7.1882490
  30.2705110  16.2121020   6.4907870  34.1546720  16.0503140   1.9874250
  34.3497350  16.9486590   2.2541680  33.3676590  15.8190220   2.4807200
  20.9508010  31.7316310   2.4266870  20.4255630  32.1124340   1.7228830
  20.8752590  32.3567080   3.1476580  24.5336320  17.1339050   4.0795950
  23.9039060  16.4326360   4.2466080  23.9941460  17.8943180   3.8629110
  27.4728270  33.7478280  16.7506560  28.3995580  33.5122550  16.7942520
  27.4578700  34.5750280  16.2692590  35.7073330  33.2903850   3.7480810
  35.8825520  32.6041590   3.1041730  35.0094900  33.8150900   3.3557480
  24.6591880  16.4123030  16.5148440  24.3776150  16.9156630  15.7509260
  25.0411580  15.6144780  16.1490570  31.2607340  15.8276610  17.0928910
  31.1472790  16.1471220  17.9880430  32.0777080  16.2289120  16.7966190
  34.0405830  32.9748140  16.5747600  34.8331150  32.4797370  16.3673560
  34.3338980  33.6538280  17.1823210  30.1665490   5.0725590  81.3281100
  30.0859540   4.1580200  81.0572810  29.7529910   5.5692660  80.6220810
  28.2983530   6.8504610  83.2090370  27.5225630   6.3705050  83.4988940
  28.9496460   6.1710260  83.0346530  22.3149360   7.1624420  84.0866130
  21.4834240   6.9073130  84.4862640  22.9230340   7.2335190  84.8224050
  32.3190960  11.2564800  81.9889500  31.8572490  10.4852040  82.3176670
  33.1316510  11.2830870  82.4941950  22.2950620  11.1964510  84.2824150
  22.5978660  10.3062250  84.1034370  23.0394210  11.7534730  84.0546400
  20.7241310   2.1226310  77.8708520  19.8358010   2.4642280  77.7688400
  21.0082500   1.9226630  76.9789350  18.6874320   4.7231960  83.7548220
  19.2590430   3.9554160  83.7551860  18.6875860   5.0220720  82.8454830
  28.5454270  13.5422810  81.6093490  27.9265710  13.9980310  81.0387930
  29.4006050  13.6974270  81.2083190  27.7392520   9.5261800  83.2160530
  27.6700800   8.5851740  83.0549660  28.5012380   9.6163210  83.7883100
  20.5485860   2.6276820  84.1499490  21.2295970   2.8915190  84.7686890
  20.2333910   1.7877690  84.4837500  24.7410430   3.6744180  83.2372080
  25.2488650   4.1725150  83.8777100  25.2723670   2.8979380  83.0611440
  36.8421360   1.8449370  86.9401430  36.1373530   2.2331080  86.4216540
  37.1079280   2.5399660  87.5422360  29.4117620   8.4262050  79.0025400
  28.7934890   8.8911500  78.4388120  29.9240870   9.1189530  79.4194910
  24.2749380   7.9537920  85.6809000  23.9418760   8.5806840  86.3230070
  24.4516060   8.4799800  84.9010670  32.7883290   1.7683000  83.1485340
  32.0838860   2.0567890  83.7288450  33.1495450   2.5783110  82.7884900
  23.4868480   9.9218720  87.4958180  24.1042480  10.5969800  87.2142630
  22.6261600  10.3306700  87.4045680  18.7800820   9.1118580  76.3765030
  18.4028800   9.6005680  75.6449930  19.0373890   9.7843860  77.0071560
  34.4046070  11.3858130  85.4112820  33.7209590  12.0557240  85.4029490
  34.9440360  11.5838780  84.6457680  31.9404810  13.2302260  84.1258000
  31.9531970  12.8264550  83.2580260  31.3880030  14.0049550  84.0219430
  33.2350230   9.9518480  79.2148170  33.1246560   9.0092810  79.3397590
  33.2318480  10.3134120  80.1010930  31.3390250   8.1332100  85.4540610
  31.7559040   7.9192210  84.6194070  32.0630070   8.3904890  86.0249230
  28.7770510   5.5783800  78.5710660  27.8499790   5.5121180  78.7999130
  28.9295330   6.5163930  78.4565900  28.7639590   1.8500800  75.5677820
  27.8243260   2.0114760  75.6530280  29.0822850   2.5686480  75.0213810
  35.2852350   6.5319320  85.5456850  34.4570980   6.6012410  85.0706980
  35.8802830   7.1173630  85.0772680  32.8067800   7.1404100  79.0745910
  32.1880220   6.8023650  78.4272210  32.7892250   6.4963860  79.7825100
  32.2494360   3.3188640  86.4911720  31.8365540   4.1442350  86.7451710
  31.5170310   2.7333680  86.2988080  24.3827150   6.1048540  81.3530390
  23.9784150   5.3925790  80.8576290  24.4690270   5.7601780  82.2418430
  24.8508850   9.7916100  83.5169600  24.5537140   9.1861570  82.8377380
  25.8008670   9.8293410  83.4058960  23.0955770   2.8791750  85.1329430
  23.6470360   2.9887090  84.3582680  23.6099280   3.2529350  85.8484660
  32.9394460  13.3647970  87.1792700  32.4625020  14.1720160  86.9865310
  32.2556250  12.7126300  87.3318910  30.9832500   6.3790910  76.0818660
  31.4225780   5.5413340  75.9356480  31.6960920   7.0120310  76.1682800
  22.7698500   6.4011110  88.7434770  22.6306270   7.2733910  89.1122170
  21.8879860   6.0583920  88.5982710  29.0927880  11.3186980  80.0499900
  29.5323790  12.0611310  79.6355290  29.0314770  11.5613550  80.9738860
  21.0831780   4.9993520  78.8537040  20.9629380   5.7255610  78.2418310
  20.7732670   4.2296430  78.3764950  18.7217150   8.1708660  84.6605680
  18.7997570   8.3057430  83.7161400  19.3358830   7.4624550  84.8533800
  19.9664780   9.8708850  81.0711860  19.5592860  10.0123440  80.2165460
  20.8577790   9.5869010  80.8683070  29.7843660  14.0200760  87.9778910
  30.2988330  13.9308770  88.7801340  28.9412740  14.3660460  88.2706820
  31.7598060  14.3056100  77.4062910  31.5999200  14.0159040  78.3044740
  31.5944770  13.5296230  76.8708140  24.2386440  14.0854630  79.1834530
  24.0628920  13.1690170  78.9702330  23.3842180  14.4441920  79.4232330
  31.4624190  11.8143660  75.9660910  30.7689350  11.8120950  75.3063190
  32.2047050  11.3902980  75.5355080  31.0274120  13.4406370  80.0409400
  31.4831070  12.6595750  80.3548020  31.3666640  14.1513190  80.5850580
  18.7776670   9.2122830  87.2000140  18.9407710   8.7428190  86.3819510
  19.2429120   8.7046390  87.8648980  23.3409660   3.4662160  79.9641960
  23.1150580   3.2499330  80.8688580  22.5602190   3.8990620  79.6187930
  30.5707420   3.4725530  78.5632610  29.9716310   4.1961330  78.3796230
  31.1187030   3.4102310  77.7809060  18.4006690   2.6409990  74.0268810
  18.3181360   3.5840750  74.1683800  18.0489750   2.4984900  73.1481160
  29.7627430   4.6994820  84.6886670  29.0308550   5.2081630  85.0376770
  29.3651770   3.8824800  84.3875450  26.2624970   2.3761100  76.0845920
  26.3837790   2.3347580  77.0331740  25.8773480   3.2385250  75.9292650
  25.2746470   4.6862240  75.4829220  24.7063370   4.2380490  74.8565130
  25.9835470   5.0455020  74.9494370  26.5012790   5.4350800  84.8404570
  26.8682920   4.9609370  85.5865910  26.3117850   6.3092370  85.1812910
  24.2912160   4.4759440  87.1588780  23.9869230   5.3551420  87.3839140
  25.2458620   4.5359230  87.1946220  22.8193950   8.6820430  77.7555630
  22.0456210   8.1418050  77.5954350  23.5488580   8.1627040  77.4173390
  33.5781930   7.6785790  83.5482020  34.2981050   8.1741080  83.1578130
  33.3763750   7.0003680  82.9035890  31.7540260   3.4443400  75.9873570
  32.6419880   3.7560630  75.8124910  31.7245350   2.5715650  75.5954150
  22.8631350   8.3500810  81.3934440  23.3810020   7.5469070  81.3391330
  22.4115370   8.2879950  82.2351270  27.7500850   9.6167090  76.6661740
  28.0916550  10.3609320  76.1705060  26.9213560   9.9298210  77.0286570
  20.3475890   5.3162180  88.3060140  19.9890830   5.9816030  88.8933480
  20.0530450   4.4845730  88.6772760  34.0254530   4.7555240  75.4553430
  33.9418250   5.1869460  74.6049870  34.7448720   5.2153590  75.8880250
  35.1028670   7.2122760  88.5323400  34.3776860   7.8051540  88.3352790
  35.6304130   7.2046300  87.7336770  35.0541780  11.6097500  78.1835560
  34.4117940  10.9553120  78.4579280  34.6672440  12.0152590  77.4076230
  30.6328260   8.9382930  82.0307250  30.9852080   8.3411060  81.3708620
  29.7490590   8.6127160  82.2015500  26.7191540   9.6980620  79.4377660
  27.4062670  10.2449830  79.8185250  25.9323960  10.2421350  79.4727270
  18.8583940   5.3153440  74.9294740  19.7278790   5.5978240  75.2130660
  18.3674260   6.1289310  74.8143550  26.0218750   6.7026650  79.0503020
  26.4781530   7.5131900  79.2763210  25.6706960   6.3849790  79.8821510
  28.3251360  12.2132990  86.2795320  28.9693580  12.4192370  86.9568740
  28.6880800  11.4521390  85.8266170  29.5983440  10.2165340  84.9972770
  30.2405670   9.5158500  85.1104940  30.1232790  10.9963780  84.8169660
  33.4439160  10.5013960  74.7211910  33.2176740   9.7844400  75.3136550
  33.0535360  10.2526400  73.8833660  31.3721060  11.0160240  88.2008830
  31.7077300  11.6026930  88.8786750  30.4521400  10.8852950  88.4306620
  19.2255190  14.5280820  75.4956370  19.5852830  15.1270160  74.8413640
  19.0847530  15.0740710  76.2691400  33.0255410   8.4185900  76.3826070
  32.7377110   8.8798590  77.1703950  33.8207580   7.9583670  76.6510290
  25.2423810  11.9112020  76.3130040  25.2333910  12.6441710  75.6974550
  24.3222170  11.6643600  76.4057000  20.8430450   7.1326910  77.0576800
  20.2358400   7.8725810  77.0672100  21.3179800   7.2226270  76.2315000
  28.2283410  11.9740260  74.9755230  28.3295390  11.7704250  74.0457210
  27.3285150  11.7198540  75.1803010  25.7509300   2.5320620  78.9579130
  25.0425450   3.0006960  79.3992740  26.0353780   1.8742630  79.5924320
  27.3765230   3.9517320  86.9571660  27.8750480   4.4263140  87.6223510
  27.5188180   3.0280840  87.1641690  26.8701520  14.4926580  79.6702900
  27.1243020  14.4547970  78.7482270  25.9214000  14.3659910  79.6631150
  32.8754100   5.4118460  81.2461410  31.9344240   5.4268690  81.4209100
  33.1898170   4.6254420  81.6921710  22.8535740   7.0938060  74.8065370
  23.6199010   6.9819420  75.3690800  22.9310430   6.3976030  74.1542140
  21.5482500   4.5263130  75.4898260  21.6286090   3.5790640  75.6015660
  22.4402250   4.8570010  75.5958920  34.8779680  12.5827310  82.9215670
  35.0027100  13.4058480  83.3939480  35.7445240  12.3718040  82.5739820
  22.3497210  14.6758520  82.5932800  23.0859690  14.1273980  82.8641370
  22.7338130  15.5414530  82.4538790  19.2342690  10.7432090  78.4674310
  18.3082470  10.9853230  78.4579720  19.6999120  11.5706350  78.3459060
  25.4599520  13.8488830  74.4158370  26.2528130  14.1377660  73.9640160
  24.9403870  13.4181000  73.7370850  34.5129690  13.0758960  75.8395110
  34.2271200  12.6624100  75.0249290  34.3149240  14.0046670  75.7195630
  25.9776920   9.0692240  74.2800720  25.8727560   8.4544590  75.0062100
  25.8101140   8.5458130  73.4963730  29.2179650   8.1312270  74.8842710
  28.6689750   8.5781570  75.5285450  29.8398910   7.6261520  75.4080380
  24.8854770   7.0903190  76.7808010  25.3071190   6.9243060  77.6239400
  25.0105610   6.2803420  76.2863150  27.3982410   6.1140800  74.0285110
  27.9188070   5.3989820  73.6626260  28.0450810   6.7526670  74.3285620
  26.7075480   7.4889680  87.3216110  27.1263590   8.3322410  87.1492350
  25.7884110   7.6261720  87.0922890  31.3827280   5.7743050  87.2816460
  30.8562500   6.2985670  86.6781600  31.7258620   6.4070440  87.9126190
  23.7813670   3.1636420  73.7266170  23.5802730   2.3003780  74.0879510
  23.6105720   3.0769780  72.7887770  24.5582900  13.7942690  88.4373840
  24.0203990  14.5188750  88.1182540  24.8116860  13.3173030  87.6471180
  27.4145110  15.0293900  88.6960490  27.3403810  15.9329040  89.0032860
  26.5123950  14.7105800  88.6682560  27.9630440  14.1952410  76.3186850
  28.8581230  14.5337380  76.3405610  27.9948070  13.4731820  75.6911130
  21.6026600   9.5679460  74.5473850  22.0401470  10.1109130  75.2031430
  22.0874330   8.7426410  74.5570190  18.8172400  12.3568490  81.9994110
  19.1475410  11.4889550  81.7672750  19.2463400  12.5627010  82.8299070
  23.4134320  10.6877500  79.6596080  23.1129860  10.5642470  80.5599990
  23.3071810   9.8286090  79.2511810  19.3062610  13.2239080  84.7375740
  18.8693600  13.4039880  85.5699890  19.8740290  13.9813700  84.5957460
  36.1826240  10.4673900  74.3622760  35.3519200  10.5350550  74.8329990
  36.3598070  11.3578020  74.0589620  35.6382700   7.2121380  76.8656960
  36.4001610   7.7818030  76.9716650  35.6537070   6.6448580  77.6365270
  19.1387040   5.7359310  81.0964620  18.4835880   5.4670950  80.4524320
  19.9764990   5.6263790  80.6466600  36.6442670   8.0671480  81.7098890
  37.0151500   7.2838800  81.3034860  37.2844600   8.7560580  81.5316190
  33.6276430   9.4508060  87.1229210  32.8136270   9.8805220  87.3855000
  34.0350630  10.0626470  86.5098260  35.6901870   7.5055750  74.0229480
  35.9650710   8.4134630  73.8948700  35.5012610   7.4418280  74.9591470
  35.5867210   5.4424740  79.0158910  35.2110810   4.6752670  78.5840200
  34.8570330   5.8247440  79.5033840  20.1762970   6.1211880  85.6367960
  20.5436010   6.0339280  86.5163980  19.6073790   5.3578430  85.5374820
  34.9766830   4.5896260  88.6498430  34.7452920   4.3609010  87.7496380
  35.2371380   5.5095810  88.6043320  18.3525120   2.9458240  77.0389950
  17.4489200   3.2088440  76.8641610  18.8365740   3.2169410  76.2589910
  34.8618170   3.6682230  82.3166150  35.3855650   3.1744880  81.6856320
  35.4477590   3.8032590  83.0613720  35.0407890   3.7522100  85.8385700
  34.0910600   3.7185640  85.9530690  35.2220900   4.6622210  85.6035470
  34.3518140   2.9255580  78.2558560  34.8477260   2.6926450  79.0407440
  34.1534210   2.0867420  77.8396200  33.6852480  14.2026660  80.6497480
  34.2811550  13.8811230  79.9731900  33.9430630  13.7298480  81.4410750
  25.2921080  12.1904160  86.3997830  25.0512440  12.4578720  85.5128350
  26.2323720  12.3609890  86.4548690  36.5525240  14.2098540  87.2008470
  36.0583520  14.6067410  86.4835600  35.9438530  13.5847750  87.5945750
  21.4303080  13.5806820  87.9185890  20.8363400  13.4491520  88.6575930
  21.4226920  12.7444960  87.4527990  34.2364690  14.8521960  84.4795210
  33.7767660  15.6037770  84.1053230  33.6077150  14.1328430  84.4210010
  21.0615310  10.9465200  86.8693930  20.3349370  10.3270490  86.8019880
  21.1224460  11.3405810  85.9992010  24.6660410  13.1610200  83.6543340
  25.1825430  12.5497560  83.1291600  25.3157790  13.6638980  84.1454350
  27.4055910  14.0518690  84.4812320  27.6933720  13.7972990  83.6045330
  27.9179130  13.4996050  85.0717890  19.3445310  14.2639590  80.0790690
  19.1767350  13.6310270  80.7772580  18.4779820  14.4698990  79.7284880
  20.9508010  12.9572820  77.5240830  20.4255630  13.3380850  76.8202790
  20.8752590  13.5823590  78.2450540  35.7073330  14.5160360  78.8454770
  35.8825520  13.8298100  78.2015690  35.0094900  15.0407410  78.4531440
  23.5500980  14.9055200  76.3990080  24.2819800  14.6214480  75.8513970
  23.8094650  14.6668480  77.2889460  22.7115770  11.0219930  76.4036410
  22.0824650  11.4905030  76.9522240  22.8263600  10.1769150  76.8382600
  30.1665490   5.0725590  62.5537610  30.0859540   4.1580200  62.2829320
  29.7529910   5.5692660  61.8477320  28.2983530   6.8504610  64.4346880
  27.5225630   6.3705050  64.7245450  28.9496460   6.1710260  64.2603040
  22.3149360   7.1624420  65.3122640  21.4834240   6.9073130  65.7119150
  22.9230340   7.2335190  66.0480560  32.3190960  11.2564800  63.2146010
  31.8572490  10.4852040  63.5433180  33.1316510  11.2830870  63.7198460
  22.2950620  11.1964510  65.5080660  22.5978660  10.3062250  65.3290880
  23.0394210  11.7534730  65.2802910  20.7241310   2.1226310  59.0965030
  19.8358010   2.4642280  58.9944910  21.0082500   1.9226630  58.2045860
  18.6874320   4.7231960  64.9804730  19.2590430   3.9554160  64.9808370
  18.6875860   5.0220720  64.0711340  28.5454270  13.5422810  62.8350000
  27.9265710  13.9980310  62.2644440  29.4006050  13.6974270  62.4339700
  27.7392520   9.5261800  64.4417040  27.6700800   8.5851740  64.2806170
  28.5012380   9.6163210  65.0139610  20.5485860   2.6276820  65.3756000
  21.2295970   2.8915190  65.9943400  20.2333910   1.7877690  65.7094010
  24.7410430   3.6744180  64.4628590  25.2488650   4.1725150  65.1033610
  25.2723670   2.8979380  64.2867950  36.8421360   1.8449370  68.1657940
  36.1373530   2.2331080  67.6473050  37.1079280   2.5399660  68.7678870
  29.4117620   8.4262050  60.2281910  28.7934890   8.8911500  59.6644630
  29.9240870   9.1189530  60.6451420  24.2749380   7.9537920  66.9065510
  23.9418760   8.5806840  67.5486580  24.4516060   8.4799800  66.1267180
  32.7883290   1.7683000  64.3741850  32.0838860   2.0567890  64.9544960
  33.1495450   2.5783110  64.0141410  23.4868480   9.9218720  68.7214690
  24.1042480  10.5969800  68.4399140  22.6261600  10.3306700  68.6302190
  18.7800820   9.1118580  57.6021540  18.4028800   9.6005680  56.8706440
  19.0373890   9.7843860  58.2328070  34.4046070  11.3858130  66.6369330
  33.7209590  12.0557240  66.6286000  34.9440360  11.5838780  65.8714190
  31.9404810  13.2302260  65.3514510  31.9531970  12.8264550  64.4836770
  31.3880030  14.0049550  65.2475940  33.2350230   9.9518480  60.4404680
  33.1246560   9.0092810  60.5654100  33.2318480  10.3134120  61.3267440
  31.3390250   8.1332100  66.6797120  31.7559040   7.9192210  65.8450580
  32.0630070   8.3904890  67.2505740  28.7770510   5.5783800  59.7967170
  27.8499790   5.5121180  60.0255640  28.9295330   6.5163930  59.6822410
  28.7639590   1.8500800  56.7934330  27.8243260   2.0114760  56.8786790
  29.0822850   2.5686480  56.2470320  35.2852350   6.5319320  66.7713360
  34.4570980   6.6012410  66.2963490  35.8802830   7.1173630  66.3029190
  32.8067800   7.1404100  60.3002420  32.1880220   6.8023650  59.6528720
  32.7892250   6.4963860  61.0081610  32.2494360   3.3188640  67.7168230
  31.8365540   4.1442350  67.9708220  31.5170310   2.7333680  67.5244590
  24.3827150   6.1048540  62.5786900  23.9784150   5.3925790  62.0832800
  24.4690270   5.7601780  63.4674940  24.8508850   9.7916100  64.7426110
  24.5537140   9.1861570  64.0633890  25.8008670   9.8293410  64.6315470
  23.0955770   2.8791750  66.3585940  23.6470360   2.9887090  65.5839190
  23.6099280   3.2529350  67.0741170  32.9394460  13.3647970  68.4049210
  32.4625020  14.1720160  68.2121820  32.2556250  12.7126300  68.5575420
  23.9427280   9.5297790  71.3933910  23.0455810   9.7537760  71.6407310
  23.9680150   9.6532730  70.4445310  30.9832500   6.3790910  57.3075170
  31.4225780   5.5413340  57.1612990  31.6960920   7.0120310  57.3939310
  22.7698500   6.4011110  69.9691280  22.6306270   7.2733910  70.3378680
  21.8879860   6.0583920  69.8239220  29.0927880  11.3186980  61.2756410
  29.5323790  12.0611310  60.8611800  29.0314770  11.5613550  62.1995370
  24.5678850  12.3432810  72.1776430  24.5394280  12.7475760  71.3104860
  24.4043820  11.4143170  72.0148030  21.0831780   4.9993520  60.0793550
  20.9629380   5.7255610  59.4674820  20.7732670   4.2296430  59.6021460
  36.5193670  13.1259910  73.4740600  36.9953390  13.6042800  74.1529680
  37.1400830  13.0577400  72.7486100  18.7217150   8.1708660  65.8862190
  18.7997570   8.3057430  64.9417910  19.3358830   7.4624550  66.0790310
  19.9664780   9.8708850  62.2968370  19.5592860  10.0123440  61.4421970
  20.8577790   9.5869010  62.0939580  35.9226920  10.3172760  70.6340610
  36.0489980  10.0784640  69.7157790  35.9648300   9.4857300  71.1062690
  29.7843660  14.0200760  69.2035420  30.2988330  13.9308770  70.0057850
  28.9412740  14.3660460  69.4963330  31.7598060  14.3056100  58.6319420
  31.5999200  14.0159040  59.5301250  31.5944770  13.5296230  58.0964650
  24.2386440  14.0854630  60.4091040  24.0628920  13.1690170  60.1958840
  23.3842180  14.4441920  60.6488840  31.4624190  11.8143660  57.1917420
  30.7689350  11.8120950  56.5319700  32.2047050  11.3902980  56.7611590
  31.0274120  13.4406370  61.2665910  31.4831070  12.6595750  61.5804530
  31.3666640  14.1513190  61.8107090  18.7776670   9.2122830  68.4256650
  18.9407710   8.7428190  67.6076020  19.2429120   8.7046390  69.0905490
  32.8369760   2.4306060  70.1949200  31.9863350   2.1311810  70.5158270
  32.6771550   2.6748070  69.2833020  29.9319470   3.9307810  72.2947990
  30.2572880   3.0971560  71.9550220  30.7199800   4.4536330  72.4426320
  23.3409660   3.4662160  61.1898470  23.1150580   3.2499330  62.0945090
  22.5602190   3.8990620  60.8444440  30.5707420   3.4725530  59.7889120
  29.9716310   4.1961330  59.6052740  31.1187030   3.4102310  59.0065570
  25.7808870   4.3647740  71.8558740  25.6852470   3.4242470  71.7059140
  26.6240850   4.5862810  71.4606810  18.4006690   2.6409990  55.2525320
  18.3181360   3.5840750  55.3940310  18.0489750   2.4984900  54.3737670
  29.7627430   4.6994820  65.9143180  29.0308550   5.2081630  66.2633280
  29.3651770   3.8824800  65.6131960  26.2624970   2.3761100  57.3102430
  26.3837790   2.3347580  58.2588250  25.8773480   3.2385250  57.1549160
  25.2746470   4.6862240  56.7085730  24.7063370   4.2380490  56.0821640
  25.9835470   5.0455020  56.1750880  20.3515650   8.5874260  70.5852460
  19.9670440   7.9467930  71.1835420  20.6627840   9.2910380  71.1547190
  26.5012790   5.4350800  66.0661080  26.8682920   4.9609370  66.8122420
  26.3117850   6.3092370  66.4069420  24.2912160   4.4759440  68.3845290
  23.9869230   5.3551420  68.6095650  25.2458620   4.5359230  68.4202730
  22.8193950   8.6820430  58.9812140  22.0456210   8.1418050  58.8210860
  23.5488580   8.1627040  58.6429900  33.5781930   7.6785790  64.7738530
  34.2981050   8.1741080  64.3834640  33.3763750   7.0003680  64.1292400
  28.9600730   7.7494850  70.6607530  28.8938040   6.8290520  70.4065120
  28.3305870   7.8470290  71.3752170  31.7540260   3.4443400  57.2130080
  32.6419880   3.7560630  57.0381420  31.7245350   2.5715650  56.8210660
  22.8631350   8.3500810  62.6190950  23.3810020   7.5469070  62.5647840
  22.4115370   8.2879950  63.4607780  27.7500850   9.6167090  57.8918250
  28.0916550  10.3609320  57.3961570  26.9213560   9.9298210  58.2543080
  20.3475890   5.3162180  69.5316650  19.9890830   5.9816030  70.1189990
  20.0530450   4.4845730  69.9029270  23.5489010   5.7746420  72.4156200
  23.2489150   5.9203600  71.5184020  24.3200250   5.2151710  72.3229590
  28.8917460  10.5715420  70.4111330  28.9062000   9.6396380  70.1930240
  28.1842560  10.6575180  71.0501100  34.0254530   4.7555240  56.6809940
  33.9418250   5.1869460  55.8306380  34.7448720   5.2153590  57.1136760
  35.1028670   7.2122760  69.7579910  34.3776860   7.8051540  69.5609300
  35.6304130   7.2046300  68.9593280  35.0541780  11.6097500  59.4092070
  34.4117940  10.9553120  59.6835790  34.6672440  12.0152590  58.6332740
  30.6328260   8.9382930  63.2563760  30.9852080   8.3411060  62.5965130
  29.7490590   8.6127160  63.4272010  26.7191540   9.6980620  60.6634170
  27.4062670  10.2449830  61.0441760  25.9323960  10.2421350  60.6983780
  18.8583940   5.3153440  56.1551250  19.7278790   5.5978240  56.4387170
  18.3674260   6.1289310  56.0400060  26.0218750   6.7026650  60.2759530
  26.4781530   7.5131900  60.5019720  25.6706960   6.3849790  61.1078020
  28.3251360  12.2132990  67.5051830  28.9693580  12.4192370  68.1825250
  28.6880800  11.4521390  67.0522680  29.5983440  10.2165340  66.2229280
  30.2405670   9.5158500  66.3361450  30.1232790  10.9963780  66.0426170
  33.4439160  10.5013960  55.9468420  33.2176740   9.7844400  56.5393060
  33.0535360  10.2526400  55.1090170  31.3721060  11.0160240  69.4265340
  31.7077300  11.6026930  70.1043260  30.4521400  10.8852950  69.6563130
  19.2255190  14.5280820  56.7212880  19.5852830  15.1270160  56.0670150
  19.0847530  15.0740710  57.4947910  33.0255410   8.4185900  57.6082580
  32.7377110   8.8798590  58.3960460  33.8207580   7.9583670  57.8766800
  19.2097050  12.7935680  71.1955280  19.3188170  11.8530420  71.0550670
  18.5577610  13.0590430  70.5469010  27.2009640  11.0651570  72.5953400
  26.8806510  10.3460810  73.1399090  26.5268000  11.7406640  72.6689460
  25.2423810  11.9112020  57.5386550  25.2333910  12.6441710  56.9231060
  24.3222170  11.6643600  57.6313510  20.8430450   7.1326910  58.2833310
  20.2358400   7.8725810  58.2928610  21.3179800   7.2226270  57.4571510
  28.2283410  11.9740260  56.2011740  28.3295390  11.7704250  55.2713720
  27.3285150  11.7198540  56.4059520  25.7509300   2.5320620  60.1835640
  25.0425450   3.0006960  60.6249250  26.0353780   1.8742630  60.8180830
  27.3765230   3.9517320  68.1828170  27.8750480   4.4263140  68.8480020
  27.5188180   3.0280840  68.3898200  26.8701520  14.4926580  60.8959410
  27.1243020  14.4547970  59.9738780  25.9214000  14.3659910  60.8887660
  32.8754100   5.4118460  62.4717920  31.9344240   5.4268690  62.6465610
  33.1898170   4.6254420  62.9178220  22.8535740   7.0938060  56.0321880
  23.6199010   6.9819420  56.5947310  22.9310430   6.3976030  55.3798650
  21.5482500   4.5263130  56.7154770  21.6286090   3.5790640  56.8272170
  22.4402250   4.8570010  56.8215430  34.8779680  12.5827310  64.1472180
  35.0027100  13.4058480  64.6195990  35.7445240  12.3718040  63.7996330
  22.3497210  14.6758520  63.8189310  23.0859690  14.1273980  64.0897880
  22.7338130  15.5414530  63.6795300  19.2342690  10.7432090  59.6930820
  18.3082470  10.9853230  59.6836230  19.6999120  11.5706350  59.5715570
  21.3555490  13.8604590  73.0074890  22.1568220  14.1816640  73.4210290
  20.8407310  13.5000170  73.7294800  25.4599520  13.8488830  55.6414880
  26.2528130  14.1377660  55.1896670  24.9403870  13.4181000  54.9627360
  30.1920120   9.9684460  72.9550300  29.5858280   9.9916060  72.2146050
  29.8874230   9.2367500  73.4917550  31.6220490  13.6964750  71.5659710
  32.5742240  13.6122770  71.5159950  31.4748710  14.3606460  72.2393500
  34.5129690  13.0758960  57.0651620  34.2271200  12.6624100  56.2505800
  34.3149240  14.0046670  56.9452140  19.0753300   6.3478050  71.9510940
  19.5792320   5.7685330  72.5227170  18.3360720   6.6318280  72.4887310
  25.9776920   9.0692240  55.5057230  25.8727560   8.4544590  56.2318610
  25.8101140   8.5458130  54.7220240  26.1291240   7.7549040  71.4846460
  25.3636910   8.3234040  71.4001130  26.3107200   7.4625250  70.5914690
  29.2179650   8.1312270  56.1099220  28.6689750   8.5781570  56.7541960
  29.8398910   7.6261520  56.6336890  33.2714590   9.4854370  72.0421480
  34.0124060   9.8230130  71.5388940  32.5087270   9.6546430  71.4891250
  21.1076380   4.4907640  72.8461010  21.1481720   4.1921510  73.7546240
  21.9621880   4.8915250  72.6868530  24.8854770   7.0903190  58.0064520
  25.3071190   6.9243060  58.8495910  25.0105610   6.2803420  57.5119660
  23.0482190   3.0699740  70.8135500  22.5178650   2.5790690  70.1858840
  23.7170260   3.4983940  70.2793430  27.3982410   6.1140800  55.2541620
  27.9188070   5.3989820  54.8882770  28.0450810   6.7526670  55.5542130
  31.9460250   7.5369200  70.5776690  32.3601270   7.6914280  71.4267110
  31.0111250   7.6624420  70.7402470  32.4182420   4.8765360  72.5815840
  33.0003190   4.1217680  72.4936320  32.5944190   5.4072800  71.8047320
  26.7075480   7.4889680  68.5472620  27.1263590   8.3322410  68.3748860
  25.7884110   7.6261720  68.3179400  29.0439380   5.2205860  69.9310460
  29.1635590   4.6247000  70.6705300  29.9033380   5.2575550  69.5111760
  31.3827280   5.7743050  68.5072970  30.8562500   6.2985670  67.9038110
  31.7258620   6.4070440  69.1382700  23.7813670   3.1636420  54.9522680
  23.5802730   2.3003780  55.3136020  23.6105720   3.0769780  54.0144280
  24.5582900  13.7942690  69.6630350  24.0203990  14.5188750  69.3439050
  24.8116860  13.3173030  68.8727690  27.4145110  15.0293900  69.9217000
  27.3403810  15.9329040  70.2289370  26.5123950  14.7105800  69.8939070
  27.9630440  14.1952410  57.5443360  28.8581230  14.5337380  57.5662120
  27.9948070  13.4731820  56.9167640  21.6026600   9.5679460  55.7730360
  22.0401470  10.1109130  56.4287940  22.0874330   8.7426410  55.7826700
  18.8172400  12.3568490  63.2250620  19.1475410  11.4889550  62.9929260
  19.2463400  12.5627010  64.0555580  23.4134320  10.6877500  60.8852590
  23.1129860  10.5642470  61.7856500  23.3071810   9.8286090  60.4768320
  19.3062610  13.2239080  65.9632250  18.8693600  13.4039880  66.7956400
  19.8740290  13.9813700  65.8213970  34.9424790  12.7256080  70.2509560
  34.3426780  12.7848640  69.5073480  35.0718690  11.7861060  70.3806410
  36.1826240  10.4673900  55.5879270  35.3519200  10.5350550  56.0586500
  36.3598070  11.3578020  55.2846130  35.6382700   7.2121380  58.0913470
  36.4001610   7.7818030  58.1973160  35.6537070   6.6448580  58.8621780
  19.1387040   5.7359310  62.3221130  18.4835880   5.4670950  61.6780830
  19.9764990   5.6263790  61.8723110  36.6442670   8.0671480  62.9355400
  37.0151500   7.2838800  62.5291370  37.2844600   8.7560580  62.7572700
  33.6276430   9.4508060  68.3485720  32.8136270   9.8805220  68.6111510
  34.0350630  10.0626470  67.7354770  35.6901870   7.5055750  55.2485990
  35.9650710   8.4134630  55.1205210  35.5012610   7.4418280  56.1847980
  35.5867210   5.4424740  60.2415420  35.2110810   4.6752670  59.8096710
  34.8570330   5.8247440  60.7290350  20.1762970   6.1211880  66.8624470
  20.5436010   6.0339280  67.7420490  19.6073790   5.3578430  66.7631330
  34.9766830   4.5896260  69.8754940  34.7452920   4.3609010  68.9752890
  35.2371380   5.5095810  69.8299830  19.7278970   3.0320970  70.7682890
  18.8335020   2.9987730  71.1076600  20.2676520   3.2307760  71.5334140
  18.3525120   2.9458240  58.2646460  17.4489200   3.2088440  58.0898120
  18.8365740   3.2169410  57.4846420  34.8618170   3.6682230  63.5422660
  35.3855650   3.1744880  62.9112830  35.4477590   3.8032590  64.2870230
  35.0407890   3.7522100  67.0642210  34.0910600   3.7185640  67.1787200
  35.2220900   4.6622210  66.8291980  34.3518140   2.9255580  59.4815070
  34.8477260   2.6926450  60.2663950  34.1534210   2.0867420  59.0652710
  33.6852480  14.2026660  61.8753990  34.2811550  13.8811230  61.1988410
  33.9430630  13.7298480  62.6667260  21.5915050  10.6344570  72.0244620
  21.5484680  10.2637480  72.9059080  21.7226060  11.5722140  72.1646440
  25.2921080  12.1904160  67.6254340  25.0512440  12.4578720  66.7384860
  26.2323720  12.3609890  67.6805200  36.5525240  14.2098540  68.4264980
  36.0583520  14.6067410  67.7092110  35.9438530  13.5847750  68.8202260
  21.4303080  13.5806820  69.1442400  20.8363400  13.4491520  69.8832440
  21.4226920  12.7444960  68.6784500  34.2364690  14.8521960  65.7051720
  33.7767660  15.6037770  65.3309740  33.6077150  14.1328430  65.6466520
  21.0615310  10.9465200  68.0950440  20.3349370  10.3270490  68.0276390
  21.1224460  11.3405810  67.2248520  24.6660410  13.1610200  64.8799850
  25.1825430  12.5497560  64.3548110  25.3157790  13.6638980  65.3710860
  27.4055910  14.0518690  65.7068830  27.6933720  13.7972990  64.8301840
  27.9179130  13.4996050  66.2974400  19.3445310  14.2639590  61.3047200
  19.1767350  13.6310270  62.0029090  18.4779820  14.4698990  60.9541390
  20.9508010  12.9572820  58.7497340  20.4255630  13.3380850  58.0459300
  20.8752590  13.5823590  59.4707050  27.4728270  14.9734790  73.0737030
  28.3995580  14.7379060  73.1172990  27.4578700  15.8006790  72.5923060
  35.7073330  14.5160360  60.0711280  35.8825520  13.8298100  59.4272200
  35.0094900  15.0407410  59.6787950  23.5500980  14.9055200  57.6246590
  24.2819800  14.6214480  57.0770480  23.8094650  14.6668480  58.5145970
  22.7115770  11.0219930  57.6292920  22.0824650  11.4905030  58.1778750
  22.8263600  10.1769150  58.0639110  34.0405830  14.2004650  72.8978070
  34.8331150  13.7053880  72.6904030  34.3338980  14.8794790  73.5053680
  30.1665490   5.0725590  43.7794120  30.0859540   4.1580200  43.5085830
  29.7529910   5.5692660  43.0733830  28.2983530   6.8504610  45.6603390
  27.5225630   6.3705050  45.9501960  28.9496460   6.1710260  45.4859550
  22.3149360   7.1624420  46.5379150  21.4834240   6.9073130  46.9375660
  22.9230340   7.2335190  47.2737070  32.3190960  11.2564800  44.4402520
  31.8572490  10.4852040  44.7689690  33.1316510  11.2830870  44.9454970
  22.2950620  11.1964510  46.7337170  22.5978660  10.3062250  46.5547390
  23.0394210  11.7534730  46.5059420  20.7241310   2.1226310  40.3221540
  19.8358010   2.4642280  40.2201420  21.0082500   1.9226630  39.4302370
  18.6874320   4.7231960  46.2061240  19.2590430   3.9554160  46.2064880
  18.6875860   5.0220720  45.2967850  28.5454270  13.5422810  44.0606510
  27.9265710  13.9980310  43.4900950  29.4006050  13.6974270  43.6596210
  27.7392520   9.5261800  45.6673550  27.6700800   8.5851740  45.5062680
  28.5012380   9.6163210  46.2396120  20.5485860   2.6276820  46.6012510
  21.2295970   2.8915190  47.2199910  20.2333910   1.7877690  46.9350520
  24.7410430   3.6744180  45.6885100  25.2488650   4.1725150  46.3290120
  25.2723670   2.8979380  45.5124460  36.8421360   1.8449370  49.3914450
  36.1373530   2.2331080  48.8729560  37.1079280   2.5399660  49.9935380
  29.4117620   8.4262050  41.4538420  28.7934890   8.8911500  40.8901140
  29.9240870   9.1189530  41.8707930  24.2749380   7.9537920  48.1322020
  23.9418760   8.5806840  48.7743090  24.4516060   8.4799800  47.3523690
  32.7883290   1.7683000  45.5998360  32.0838860   2.0567890  46.1801470
  33.1495450   2.5783110  45.2397920  23.4868480   9.9218720  49.9471200
  24.1042480  10.5969800  49.6655650  22.6261600  10.3306700  49.8558700
  18.7800820   9.1118580  38.8278050  18.4028800   9.6005680  38.0962950
  19.0373890   9.7843860  39.4584580  34.4046070  11.3858130  47.8625840
  33.7209590  12.0557240  47.8542510  34.9440360  11.5838780  47.0970700
  31.9404810  13.2302260  46.5771020  31.9531970  12.8264550  45.7093280
  31.3880030  14.0049550  46.4732450  33.2350230   9.9518480  41.6661190
  33.1246560   9.0092810  41.7910610  33.2318480  10.3134120  42.5523950
  31.3390250   8.1332100  47.9053630  31.7559040   7.9192210  47.0707090
  32.0630070   8.3904890  48.4762250  28.7770510   5.5783800  41.0223680
  27.8499790   5.5121180  41.2512150  28.9295330   6.5163930  40.9078920
  28.7639590   1.8500800  38.0190840  27.8243260   2.0114760  38.1043300
  29.0822850   2.5686480  37.4726830  35.2852350   6.5319320  47.9969870
  34.4570980   6.6012410  47.5220000  35.8802830   7.1173630  47.5285700
  32.8067800   7.1404100  41.5258930  32.1880220   6.8023650  40.8785230
  32.7892250   6.4963860  42.2338120  32.2494360   3.3188640  48.9424740
  31.8365540   4.1442350  49.1964730  31.5170310   2.7333680  48.7501100
  24.3827150   6.1048540  43.8043410  23.9784150   5.3925790  43.3089310
  24.4690270   5.7601780  44.6931450  24.8508850   9.7916100  45.9682620
  24.5537140   9.1861570  45.2890400  25.8008670   9.8293410  45.8571980
  23.0955770   2.8791750  47.5842450  23.6470360   2.9887090  46.8095700
  23.6099280   3.2529350  48.2997680  32.9394460  13.3647970  49.6305720
  32.4625020  14.1720160  49.4378330  32.2556250  12.7126300  49.7831930
  23.9427280   9.5297790  52.6190420  23.0455810   9.7537760  52.8663820
  23.9680150   9.6532730  51.6701820  30.9832500   6.3790910  38.5331680
  31.4225780   5.5413340  38.3869500  31.6960920   7.0120310  38.6195820
  22.7698500   6.4011110  51.1947790  22.6306270   7.2733910  51.5635190
  21.8879860   6.0583920  51.0495730  29.0927880  11.3186980  42.5012920
  29.5323790  12.0611310  42.0868310  29.0314770  11.5613550  43.4251880
  24.5678850  12.3432810  53.4032940  24.5394280  12.7475760  52.5361370
  24.4043820  11.4143170  53.2404540  21.0831780   4.9993520  41.3050060
  20.9629380   5.7255610  40.6931330  20.7732670   4.2296430  40.8277970
  36.5193670  13.1259910  54.6997110  36.9953390  13.6042800  55.3786190
  37.1400830  13.0577400  53.9742610  18.7217150   8.1708660  47.1118700
  18.7997570   8.3057430  46.1674420  19.3358830   7.4624550  47.3046820
  19.9664780   9.8708850  43.5224880  19.5592860  10.0123440  42.6678480
  20.8577790   9.5869010  43.3196090  35.9226920  10.3172760  51.8597120
  36.0489980  10.0784640  50.9414300  35.9648300   9.4857300  52.3319200
  29.7843660  14.0200760  50.4291930  30.2988330  13.9308770  51.2314360
  28.9412740  14.3660460  50.7219840  31.7598060  14.3056100  39.8575930
  31.5999200  14.0159040  40.7557760  31.5944770  13.5296230  39.3221160
  24.2386440  14.0854630  41.6347550  24.0628920  13.1690170  41.4215350
  23.3842180  14.4441920  41.8745350  31.4624190  11.8143660  38.4173930
  30.7689350  11.8120950  37.7576210  32.2047050  11.3902980  37.9868100
  31.0274120  13.4406370  42.4922420  31.4831070  12.6595750  42.8061040
  31.3666640  14.1513190  43.0363600  18.7776670   9.2122830  49.6513160
  18.9407710   8.7428190  48.8332530  19.2429120   8.7046390  50.3162000
  32.8369760   2.4306060  51.4205710  31.9863350   2.1311810  51.7414780
  32.6771550   2.6748070  50.5089530  29.9319470   3.9307810  53.5204500
  30.2572880   3.0971560  53.1806730  30.7199800   4.4536330  53.6682830
  23.3409660   3.4662160  42.4154980  23.1150580   3.2499330  43.3201600
  22.5602190   3.8990620  42.0700950  30.5707420   3.4725530  41.0145630
  29.9716310   4.1961330  40.8309250  31.1187030   3.4102310  40.2322080
  25.7808870   4.3647740  53.0815250  25.6852470   3.4242470  52.9315650
  26.6240850   4.5862810  52.6863320  18.4006690   2.6409990  36.4781830
  18.3181360   3.5840750  36.6196820  18.0489750   2.4984900  35.5994180
  29.7627430   4.6994820  47.1399690  29.0308550   5.2081630  47.4889790
  29.3651770   3.8824800  46.8388470  26.2624970   2.3761100  38.5358940
  26.3837790   2.3347580  39.4844760  25.8773480   3.2385250  38.3805670
  25.2746470   4.6862240  37.9342240  24.7063370   4.2380490  37.3078150
  25.9835470   5.0455020  37.4007390  20.3515650   8.5874260  51.8108970
  19.9670440   7.9467930  52.4091930  20.6627840   9.2910380  52.3803700
  26.5012790   5.4350800  47.2917590  26.8682920   4.9609370  48.0378930
  26.3117850   6.3092370  47.6325930  24.2912160   4.4759440  49.6101800
  23.9869230   5.3551420  49.8352160  25.2458620   4.5359230  49.6459240
  22.8193950   8.6820430  40.2068650  22.0456210   8.1418050  40.0467370
  23.5488580   8.1627040  39.8686410  33.5781930   7.6785790  45.9995040
  34.2981050   8.1741080  45.6091150  33.3763750   7.0003680  45.3548910
  28.9600730   7.7494850  51.8864040  28.8938040   6.8290520  51.6321630
  28.3305870   7.8470290  52.6008680  31.7540260   3.4443400  38.4386590
  32.6419880   3.7560630  38.2637930  31.7245350   2.5715650  38.0467170
  22.8631350   8.3500810  43.8447460  23.3810020   7.5469070  43.7904350
  22.4115370   8.2879950  44.6864290  27.7500850   9.6167090  39.1174760
  28.0916550  10.3609320  38.6218080  26.9213560   9.9298210  39.4799590
  20.3475890   5.3162180  50.7573160  19.9890830   5.9816030  51.3446500
  20.0530450   4.4845730  51.1285780  23.5489010   5.7746420  53.6412710
  23.2489150   5.9203600  52.7440530  24.3200250   5.2151710  53.5486100
  28.8917460  10.5715420  51.6367840  28.9062000   9.6396380  51.4186750
  28.1842560  10.6575180  52.2757610  34.0254530   4.7555240  37.9066450
  33.9418250   5.1869460  37.0562890  34.7448720   5.2153590  38.3393270
  35.1028670   7.2122760  50.9836420  34.3776860   7.8051540  50.7865810
  35.6304130   7.2046300  50.1849790  35.0541780  11.6097500  40.6348580
  34.4117940  10.9553120  40.9092300  34.6672440  12.0152590  39.8589250
  30.6328260   8.9382930  44.4820270  30.9852080   8.3411060  43.8221640
  29.7490590   8.6127160  44.6528520  26.7191540   9.6980620  41.8890680
  27.4062670  10.2449830  42.2698270  25.9323960  10.2421350  41.9240290
  18.8583940   5.3153440  37.3807760  19.7278790   5.5978240  37.6643680
  18.3674260   6.1289310  37.2656570  26.0218750   6.7026650  41.5016040
  26.4781530   7.5131900  41.7276230  25.6706960   6.3849790  42.3334530
  28.3251360  12.2132990  48.7308340  28.9693580  12.4192370  49.4081760
  28.6880800  11.4521390  48.2779190  29.5983440  10.2165340  47.4485790
  30.2405670   9.5158500  47.5617960  30.1232790  10.9963780  47.2682680
  33.4439160  10.5013960  37.1724930  33.2176740   9.7844400  37.7649570
  33.0535360  10.2526400  36.3346680  31.3721060  11.0160240  50.6521850
  31.7077300  11.6026930  51.3299770  30.4521400  10.8852950  50.8819640
  19.2255190  14.5280820  37.9469390  19.5852830  15.1270160  37.2926660
  19.0847530  15.0740710  38.7204420  33.0255410   8.4185900  38.8339090
  32.7377110   8.8798590  39.6216970  33.8207580   7.9583670  39.1023310
  19.2097050  12.7935680  52.4211790  19.3188170  11.8530420  52.2807180
  18.5577610  13.0590430  51.7725520  27.2009640  11.0651570  53.8209910
  26.8806510  10.3460810  54.3655600  26.5268000  11.7406640  53.8945970
  25.2423810  11.9112020  38.7643060  25.2333910  12.6441710  38.1487570
  24.3222170  11.6643600  38.8570020  20.8430450   7.1326910  39.5089820
  20.2358400   7.8725810  39.5185120  21.3179800   7.2226270  38.6828020
  28.2283410  11.9740260  37.4268250  28.3295390  11.7704250  36.4970230
  27.3285150  11.7198540  37.6316030  25.7509300   2.5320620  41.4092150
  25.0425450   3.0006960  41.8505760  26.0353780   1.8742630  42.0437340
  27.3765230   3.9517320  49.4084680  27.8750480   4.4263140  50.0736530
  27.5188180   3.0280840  49.6154710  26.8701520  14.4926580  42.1215920
  27.1243020  14.4547970  41.1995290  25.9214000  14.3659910  42.1144170
  32.8754100   5.4118460  43.6974430  31.9344240   5.4268690  43.8722120
  33.1898170   4.6254420  44.1434730  22.8535740   7.0938060  37.2578390
  23.6199010   6.9819420  37.8203820  22.9310430   6.3976030  36.6055160
  21.5482500   4.5263130  37.9411280  21.6286090   3.5790640  38.0528680
  22.4402250   4.8570010  38.0471940  22.3497210  14.6758520  45.0445820
  23.0859690  14.1273980  45.3154390  22.7338130  15.5414530  44.9051810
  19.2342690  10.7432090  40.9187330  18.3082470  10.9853230  40.9092740
  19.6999120  11.5706350  40.7972080  21.3555490  13.8604590  54.2331400
  22.1568220  14.1816640  54.6466800  20.8407310  13.5000170  54.9551310
  25.4599520  13.8488830  36.8671390  26.2528130  14.1377660  36.4153180
  24.9403870  13.4181000  36.1883870  30.1920120   9.9684460  54.1806810
  29.5858280   9.9916060  53.4402560  29.8874230   9.2367500  54.7174060
  31.6220490  13.6964750  52.7916220  32.5742240  13.6122770  52.7416460
  31.4748710  14.3606460  53.4650010  34.5129690  13.0758960  38.2908130
  34.2271200  12.6624100  37.4762310  34.3149240  14.0046670  38.1708650
  19.0753300   6.3478050  53.1767450  19.5792320   5.7685330  53.7483680
  18.3360720   6.6318280  53.7143820  25.9776920   9.0692240  36.7313740
  25.8727560   8.4544590  37.4575120  25.8101140   8.5458130  35.9476750
  26.1291240   7.7549040  52.7102970  25.3636910   8.3234040  52.6257640
  26.3107200   7.4625250  51.8171200  29.2179650   8.1312270  37.3355730
  28.6689750   8.5781570  37.9798470  29.8398910   7.6261520  37.8593400
  33.2714590   9.4854370  53.2677990  34.0124060   9.8230130  52.7645450
  32.5087270   9.6546430  52.7147760  21.1076380   4.4907640  54.0717520
  21.1481720   4.1921510  54.9802750  21.9621880   4.8915250  53.9125040
  24.8854770   7.0903190  39.2321030  25.3071190   6.9243060  40.0752420
  25.0105610   6.2803420  38.7376170  23.0482190   3.0699740  52.0392010
  22.5178650   2.5790690  51.4115350  23.7170260   3.4983940  51.5049940
  27.3982410   6.1140800  36.4798130  27.9188070   5.3989820  36.1139280
  28.0450810   6.7526670  36.7798640  31.9460250   7.5369200  51.8033200
  32.3601270   7.6914280  52.6523620  31.0111250   7.6624420  51.9658980
  32.4182420   4.8765360  53.8072350  33.0003190   4.1217680  53.7192830
  32.5944190   5.4072800  53.0303830  26.7075480   7.4889680  49.7729130
  27.1263590   8.3322410  49.6005370  25.7884110   7.6261720  49.5435910
  29.0439380   5.2205860  51.1566970  29.1635590   4.6247000  51.8961810
  29.9033380   5.2575550  50.7368270  31.3827280   5.7743050  49.7329480
  30.8562500   6.2985670  49.1294620  31.7258620   6.4070440  50.3639210
  23.7813670   3.1636420  36.1779190  23.5802730   2.3003780  36.5392530
  23.6105720   3.0769780  35.2400790  24.5582900  13.7942690  50.8886860
  24.0203990  14.5188750  50.5695560  24.8116860  13.3173030  50.0984200
  27.4145110  15.0293900  51.1473510  27.3403810  15.9329040  51.4545880
  26.5123950  14.7105800  51.1195580  27.9630440  14.1952410  38.7699870
  28.8581230  14.5337380  38.7918630  27.9948070  13.4731820  38.1424150
  21.6026600   9.5679460  36.9986870  22.0401470  10.1109130  37.6544450
  22.0874330   8.7426410  37.0083210  18.8172400  12.3568490  44.4507130
  19.1475410  11.4889550  44.2185770  19.2463400  12.5627010  45.2812090
  23.4134320  10.6877500  42.1109100  23.1129860  10.5642470  43.0113010
  23.3071810   9.8286090  41.7024830  19.3062610  13.2239080  47.1888760
  18.8693600  13.4039880  48.0212910  19.8740290  13.9813700  47.0470480
  34.9424790  12.7256080  51.4766070  34.3426780  12.7848640  50.7329990
  35.0718690  11.7861060  51.6062920  36.1826240  10.4673900  36.8135780
  35.3519200  10.5350550  37.2843010  36.3598070  11.3578020  36.5102640
  35.6382700   7.2121380  39.3169980  36.4001610   7.7818030  39.4229670
  35.6537070   6.6448580  40.0878290  19.1387040   5.7359310  43.5477640
  18.4835880   5.4670950  42.9037340  19.9764990   5.6263790  43.0979620
  36.6442670   8.0671480  44.1611910  37.0151500   7.2838800  43.7547880
  37.2844600   8.7560580  43.9829210  33.6276430   9.4508060  49.5742230
  32.8136270   9.8805220  49.8368020  34.0350630  10.0626470  48.9611280
  35.6901870   7.5055750  36.4742500  35.9650710   8.4134630  36.3461720
  35.5012610   7.4418280  37.4104490  35.5867210   5.4424740  41.4671930
  35.2110810   4.6752670  41.0353220  34.8570330   5.8247440  41.9546860
  20.1762970   6.1211880  48.0880980  20.5436010   6.0339280  48.9677000
  19.6073790   5.3578430  47.9887840  34.9766830   4.5896260  51.1011450
  34.7452920   4.3609010  50.2009400  35.2371380   5.5095810  51.0556340
  19.7278970   3.0320970  51.9939400  18.8335020   2.9987730  52.3333110
  20.2676520   3.2307760  52.7590650  18.3525120   2.9458240  39.4902970
  17.4489200   3.2088440  39.3154630  18.8365740   3.2169410  38.7102930
  34.8618170   3.6682230  44.7679170  35.3855650   3.1744880  44.1369340
  35.4477590   3.8032590  45.5126740  35.0407890   3.7522100  48.2898720
  34.0910600   3.7185640  48.4043710  35.2220900   4.6622210  48.0548490
  34.3518140   2.9255580  40.7071580  34.8477260   2.6926450  41.4920460
  34.1534210   2.0867420  40.2909220  21.5915050  10.6344570  53.2501130
  21.5484680  10.2637480  54.1315590  21.7226060  11.5722140  53.3902950
  25.2921080  12.1904160  48.8510850  25.0512440  12.4578720  47.9641370
  26.2323720  12.3609890  48.9061710  36.5525240  14.2098540  49.6521490
  36.0583520  14.6067410  48.9348620  35.9438530  13.5847750  50.0458770
  21.4303080  13.5806820  50.3698910  20.8363400  13.4491520  51.1088950
  21.4226920  12.7444960  49.9041010  21.0615310  10.9465200  49.3206950
  20.3349370  10.3270490  49.2532900  21.1224460  11.3405810  48.4505030
  24.6660410  13.1610200  46.1056360  25.1825430  12.5497560  45.5804620
  25.3157790  13.6638980  46.5967370  27.4055910  14.0518690  46.9325340
  27.6933720  13.7972990  46.0558350  27.9179130  13.4996050  47.5230910
  19.3445310  14.2639590  42.5303710  19.1767350  13.6310270  43.2285600
  18.4779820  14.4698990  42.1797900  20.9508010  12.9572820  39.9753850
  20.4255630  13.3380850  39.2715810  20.8752590  13.5823590  40.6963560
  27.4728270  14.9734790  54.2993540  28.3995580  14.7379060  54.3429500
  27.4578700  15.8006790  53.8179570  23.5500980  14.9055200  38.8503100
  24.2819800  14.6214480  38.3026990  23.8094650  14.6668480  39.7402480
  22.7115770  11.0219930  38.8549430  22.0824650  11.4905030  39.4035260
  22.8263600  10.1769150  39.2895620  34.0405830  14.2004650  54.1234580
  34.8331150  13.7053880  53.9160540  34.3338980  14.8794790  54.7310190
  30.1665490   5.0725590  25.0050630  30.0859540   4.1580200  24.7342340
  29.7529910   5.5692660  24.2990340  28.2983530   6.8504610  26.8859900
  27.5225630   6.3705050  27.1758470  28.9496460   6.1710260  26.7116060
  22.3149360   7.1624420  27.7635660  21.4834240   6.9073130  28.1632170
  22.9230340   7.2335190  28.4993580  32.3190960  11.2564800  25.6659030
  31.8572490  10.4852040  25.9946200  33.1316510  11.2830870  26.1711480
  22.2950620  11.1964510  27.9593680  22.5978660  10.3062250  27.7803900
  23.0394210  11.7534730  27.7315930  20.7241310   2.1226310  21.5478050
  19.8358010   2.4642280  21.4457930  21.0082500   1.9226630  20.6558880
  18.6874320   4.7231960  27.4317750  19.2590430   3.9554160  27.4321390
  18.6875860   5.0220720  26.5224360  28.5454270  13.5422810  25.2863020
  27.9265710  13.9980310  24.7157460  29.4006050  13.6974270  24.8852720
  27.7392520   9.5261800  26.8930060  27.6700800   8.5851740  26.7319190
  28.5012380   9.6163210  27.4652630  20.5485860   2.6276820  27.8269020
  21.2295970   2.8915190  28.4456420  20.2333910   1.7877690  28.1607030
  24.7410430   3.6744180  26.9141610  25.2488650   4.1725150  27.5546630
  25.2723670   2.8979380  26.7380970  36.8421360   1.8449370  30.6170960
  36.1373530   2.2331080  30.0986070  37.1079280   2.5399660  31.2191890
  29.4117620   8.4262050  22.6794930  28.7934890   8.8911500  22.1157650
  29.9240870   9.1189530  23.0964440  24.2749380   7.9537920  29.3578530
  23.9418760   8.5806840  29.9999600  24.4516060   8.4799800  28.5780200
  32.7883290   1.7683000  26.8254870  32.0838860   2.0567890  27.4057980
  33.1495450   2.5783110  26.4654430  23.4868480   9.9218720  31.1727710
  24.1042480  10.5969800  30.8912160  22.6261600  10.3306700  31.0815210
  18.7800820   9.1118580  20.0534560  18.4028800   9.6005680  19.3219460
  19.0373890   9.7843860  20.6841090  34.4046070  11.3858130  29.0882350
  33.7209590  12.0557240  29.0799020  34.9440360  11.5838780  28.3227210
  31.9404810  13.2302260  27.8027530  31.9531970  12.8264550  26.9349790
  31.3880030  14.0049550  27.6988960  33.2350230   9.9518480  22.8917700
  33.1246560   9.0092810  23.0167120  33.2318480  10.3134120  23.7780460
  31.3390250   8.1332100  29.1310140  31.7559040   7.9192210  28.2963600
  32.0630070   8.3904890  29.7018760  28.7770510   5.5783800  22.2480190
  27.8499790   5.5121180  22.4768660  28.9295330   6.5163930  22.1335430
  28.7639590   1.8500800  19.2447350  27.8243260   2.0114760  19.3299810
  29.0822850   2.5686480  18.6983340  35.2852350   6.5319320  29.2226380
  34.4570980   6.6012410  28.7476510  35.8802830   7.1173630  28.7542210
  32.8067800   7.1404100  22.7515440  32.1880220   6.8023650  22.1041740
  32.7892250   6.4963860  23.4594630  32.2494360   3.3188640  30.1681250
  31.8365540   4.1442350  30.4221240  31.5170310   2.7333680  29.9757610
  24.3827150   6.1048540  25.0299920  23.9784150   5.3925790  24.5345820
  24.4690270   5.7601780  25.9187960  24.8508850   9.7916100  27.1939130
  24.5537140   9.1861570  26.5146910  25.8008670   9.8293410  27.0828490
  23.0955770   2.8791750  28.8098960  23.6470360   2.9887090  28.0352210
  23.6099280   3.2529350  29.5254190  32.9394460  13.3647970  30.8562230
  32.4625020  14.1720160  30.6634840  32.2556250  12.7126300  31.0088440
  23.9427280   9.5297790  33.8446930  23.0455810   9.7537760  34.0920330
  23.9680150   9.6532730  32.8958330  30.9832500   6.3790910  19.7588190
  31.4225780   5.5413340  19.6126010  31.6960920   7.0120310  19.8452330
  22.7698500   6.4011110  32.4204300  22.6306270   7.2733910  32.7891700
  21.8879860   6.0583920  32.2752240  29.0927880  11.3186980  23.7269430
  29.5323790  12.0611310  23.3124820  29.0314770  11.5613550  24.6508390
  24.5678850  12.3432810  34.6289450  24.5394280  12.7475760  33.7617880
  24.4043820  11.4143170  34.4661050  21.0831780   4.9993520  22.5306570
  20.9629380   5.7255610  21.9187840  20.7732670   4.2296430  22.0534480
  18.7217150   8.1708660  28.3375210  18.7997570   8.3057430  27.3930930
  19.3358830   7.4624550  28.5303330  19.9664780   9.8708850  24.7481390
  19.5592860  10.0123440  23.8934990  20.8577790   9.5869010  24.5452600
  35.9226920  10.3172760  33.0853630  36.0489980  10.0784640  32.1670810
  35.9648300   9.4857300  33.5575710  29.7843660  14.0200760  31.6548440
  30.2988330  13.9308770  32.4570870  28.9412740  14.3660460  31.9476350
  31.7598060  14.3056100  21.0832440  31.5999200  14.0159040  21.9814270
  31.5944770  13.5296230  20.5477670  24.2386440  14.0854630  22.8604060
  24.0628920  13.1690170  22.6471860  23.3842180  14.4441920  23.1001860
  31.4624190  11.8143660  19.6430440  30.7689350  11.8120950  18.9832720
  32.2047050  11.3902980  19.2124610  31.0274120  13.4406370  23.7178930
  31.4831070  12.6595750  24.0317550  31.3666640  14.1513190  24.2620110
  18.7776670   9.2122830  30.8769670  18.9407710   8.7428190  30.0589040
  19.2429120   8.7046390  31.5418510  32.8369760   2.4306060  32.6462220
  31.9863350   2.1311810  32.9671290  32.6771550   2.6748070  31.7346040
  29.9319470   3.9307810  34.7461010  30.2572880   3.0971560  34.4063240
  30.7199800   4.4536330  34.8939340  23.3409660   3.4662160  23.6411490
  23.1150580   3.2499330  24.5458110  22.5602190   3.8990620  23.2957460
  30.5707420   3.4725530  22.2402140  29.9716310   4.1961330  22.0565760
  31.1187030   3.4102310  21.4578590  25.7808870   4.3647740  34.3071760
  25.6852470   3.4242470  34.1572160  26.6240850   4.5862810  33.9119830
  18.4006690   2.6409990  17.7038340  18.3181360   3.5840750  17.8453330
  18.0489750   2.4984900  16.8250690  29.7627430   4.6994820  28.3656200
  29.0308550   5.2081630  28.7146300  29.3651770   3.8824800  28.0644980
  26.2624970   2.3761100  19.7615450  26.3837790   2.3347580  20.7101270
  25.8773480   3.2385250  19.6062180  25.2746470   4.6862240  19.1598750
  24.7063370   4.2380490  18.5334660  25.9835470   5.0455020  18.6263900
  20.3515650   8.5874260  33.0365480  19.9670440   7.9467930  33.6348440
  20.6627840   9.2910380  33.6060210  26.5012790   5.4350800  28.5174100
  26.8682920   4.9609370  29.2635440  26.3117850   6.3092370  28.8582440
  24.2912160   4.4759440  30.8358310  23.9869230   5.3551420  31.0608670
  25.2458620   4.5359230  30.8715750  22.8193950   8.6820430  21.4325160
  22.0456210   8.1418050  21.2723880  23.5488580   8.1627040  21.0942920
  33.5781930   7.6785790  27.2251550  34.2981050   8.1741080  26.8347660
  33.3763750   7.0003680  26.5805420  28.9600730   7.7494850  33.1120550
  28.8938040   6.8290520  32.8578140  28.3305870   7.8470290  33.8265190
  31.7540260   3.4443400  19.6643100  32.6419880   3.7560630  19.4894440
  31.7245350   2.5715650  19.2723680  22.8631350   8.3500810  25.0703970
  23.3810020   7.5469070  25.0160860  22.4115370   8.2879950  25.9120800
  27.7500850   9.6167090  20.3431270  28.0916550  10.3609320  19.8474590
  26.9213560   9.9298210  20.7056100  20.3475890   5.3162180  31.9829670
  19.9890830   5.9816030  32.5703010  20.0530450   4.4845730  32.3542290
  23.5489010   5.7746420  34.8669220  23.2489150   5.9203600  33.9697040
  24.3200250   5.2151710  34.7742610  28.8917460  10.5715420  32.8624350
  28.9062000   9.6396380  32.6443260  28.1842560  10.6575180  33.5014120
  34.0254530   4.7555240  19.1322960  33.9418250   5.1869460  18.2819400
  34.7448720   5.2153590  19.5649780  35.1028670   7.2122760  32.2092930
  34.3776860   7.8051540  32.0122320  35.6304130   7.2046300  31.4106300
  35.0541780  11.6097500  21.8605090  34.4117940  10.9553120  22.1348810
  34.6672440  12.0152590  21.0845760  30.6328260   8.9382930  25.7076780
  30.9852080   8.3411060  25.0478150  29.7490590   8.6127160  25.8785030
  26.7191540   9.6980620  23.1147190  27.4062670  10.2449830  23.4954780
  25.9323960  10.2421350  23.1496800  18.8583940   5.3153440  18.6064270
  19.7278790   5.5978240  18.8900190  18.3674260   6.1289310  18.4913080
  26.0218750   6.7026650  22.7272550  26.4781530   7.5131900  22.9532740
  25.6706960   6.3849790  23.5591040  28.3251360  12.2132990  29.9564850
  28.9693580  12.4192370  30.6338270  28.6880800  11.4521390  29.5035700
  29.5983440  10.2165340  28.6742300  30.2405670   9.5158500  28.7874470
  30.1232790  10.9963780  28.4939190  33.4439160  10.5013960  18.3981440
  33.2176740   9.7844400  18.9906080  33.0535360  10.2526400  17.5603190
  31.3721060  11.0160240  31.8778360  31.7077300  11.6026930  32.5556280
  30.4521400  10.8852950  32.1076150  19.2255190  14.5280820  19.1725900
  19.5852830  15.1270160  18.5183170  19.0847530  15.0740710  19.9460930
  33.0255410   8.4185900  20.0595600  32.7377110   8.8798590  20.8473480
  33.8207580   7.9583670  20.3279820  19.2097050  12.7935680  33.6468300
  19.3188170  11.8530420  33.5063690  18.5577610  13.0590430  32.9982030
  27.2009640  11.0651570  35.0466420  26.8806510  10.3460810  35.5912110
  26.5268000  11.7406640  35.1202480  25.2423810  11.9112020  19.9899570
  25.2333910  12.6441710  19.3744080  24.3222170  11.6643600  20.0826530
  20.8430450   7.1326910  20.7346330  20.2358400   7.8725810  20.7441630
  21.3179800   7.2226270  19.9084530  28.2283410  11.9740260  18.6524760
  28.3295390  11.7704250  17.7226740  27.3285150  11.7198540  18.8572540
  25.7509300   2.5320620  22.6348660  25.0425450   3.0006960  23.0762270
  26.0353780   1.8742630  23.2693850  27.3765230   3.9517320  30.6341190
  27.8750480   4.4263140  31.2993040  27.5188180   3.0280840  30.8411220
  26.8701520  14.4926580  23.3472430  27.1243020  14.4547970  22.4251800
  25.9214000  14.3659910  23.3400680  32.8754100   5.4118460  24.9230940
  31.9344240   5.4268690  25.0978630  33.1898170   4.6254420  25.3691240
  22.8535740   7.0938060  18.4834900  23.6199010   6.9819420  19.0460330
  22.9310430   6.3976030  17.8311670  21.5482500   4.5263130  19.1667790
  21.6286090   3.5790640  19.2785190  22.4402250   4.8570010  19.2728450
  34.8779680  12.5827310  26.5985200  35.0027100  13.4058480  27.0709010
  35.7445240  12.3718040  26.2509350  22.3497210  14.6758520  26.2702330
  23.0859690  14.1273980  26.5410900  22.7338130  15.5414530  26.1308320
  19.2342690  10.7432090  22.1443840  18.3082470  10.9853230  22.1349250
  19.6999120  11.5706350  22.0228590  21.3555490  13.8604590  35.4587910
  22.1568220  14.1816640  35.8723310  20.8407310  13.5000170  36.1807820
  25.4599520  13.8488830  18.0927900  26.2528130  14.1377660  17.6409690
  24.9403870  13.4181000  17.4140380  30.1920120   9.9684460  35.4063320
  29.5858280   9.9916060  34.6659070  29.8874230   9.2367500  35.9430570
  31.6220490  13.6964750  34.0172730  32.5742240  13.6122770  33.9672970
  31.4748710  14.3606460  34.6906520  34.5129690  13.0758960  19.5164640
  34.2271200  12.6624100  18.7018820  34.3149240  14.0046670  19.3965160
  19.0753300   6.3478050  34.4023960  19.5792320   5.7685330  34.9740190
  18.3360720   6.6318280  34.9400330  25.9776920   9.0692240  17.9570250
  25.8727560   8.4544590  18.6831630  25.8101140   8.5458130  17.1733260
  26.1291240   7.7549040  33.9359480  25.3636910   8.3234040  33.8514150
  26.3107200   7.4625250  33.0427710  29.2179650   8.1312270  18.5612240
  28.6689750   8.5781570  19.2054980  29.8398910   7.6261520  19.0849910
  33.2714590   9.4854370  34.4934500  34.0124060   9.8230130  33.9901960
  32.5087270   9.6546430  33.9404270  21.1076380   4.4907640  35.2974030
  21.1481720   4.1921510  36.2059260  21.9621880   4.8915250  35.1381550
  24.8854770   7.0903190  20.4577540  25.3071190   6.9243060  21.3008930
  25.0105610   6.2803420  19.9632680  23.0482190   3.0699740  33.2648520
  22.5178650   2.5790690  32.6371860  23.7170260   3.4983940  32.7306450
  27.3982410   6.1140800  17.7054640  27.9188070   5.3989820  17.3395790
  28.0450810   6.7526670  18.0055150  31.9460250   7.5369200  33.0289710
  32.3601270   7.6914280  33.8780130  31.0111250   7.6624420  33.1915490
  32.4182420   4.8765360  35.0328860  33.0003190   4.1217680  34.9449340
  32.5944190   5.4072800  34.2560340  26.7075480   7.4889680  30.9985640
  27.1263590   8.3322410  30.8261880  25.7884110   7.6261720  30.7692420
  29.0439380   5.2205860  32.3823480  29.1635590   4.6247000  33.1218320
  29.9033380   5.2575550  31.9624780  31.3827280   5.7743050  30.9585990
  30.8562500   6.2985670  30.3551130  31.7258620   6.4070440  31.5895720
  23.7813670   3.1636420  17.4035700  23.5802730   2.3003780  17.7649040
  23.6105720   3.0769780  16.4657300  24.5582900  13.7942690  32.1143370
  24.0203990  14.5188750  31.7952070  24.8116860  13.3173030  31.3240710
  27.4145110  15.0293900  32.3730020  27.3403810  15.9329040  32.6802390
  26.5123950  14.7105800  32.3452090  27.9630440  14.1952410  19.9956380
  28.8581230  14.5337380  20.0175140  27.9948070  13.4731820  19.3680660
  21.6026600   9.5679460  18.2243380  22.0401470  10.1109130  18.8800960
  22.0874330   8.7426410  18.2339720  18.8172400  12.3568490  25.6763640
  19.1475410  11.4889550  25.4442280  19.2463400  12.5627010  26.5068600
  23.4134320  10.6877500  23.3365610  23.1129860  10.5642470  24.2369520
  23.3071810   9.8286090  22.9281340  19.3062610  13.2239080  28.4145270
  18.8693600  13.4039880  29.2469420  19.8740290  13.9813700  28.2726990
  34.9424790  12.7256080  32.7022580  34.3426780  12.7848640  31.9586500
  35.0718690  11.7861060  32.8319430  36.1826240  10.4673900  18.0392290
  35.3519200  10.5350550  18.5099520  36.3598070  11.3578020  17.7359150
  35.6382700   7.2121380  20.5426490  36.4001610   7.7818030  20.6486180
  35.6537070   6.6448580  21.3134800  19.1387040   5.7359310  24.7734150
  18.4835880   5.4670950  24.1293850  19.9764990   5.6263790  24.3236130
  36.6442670   8.0671480  25.3868420  37.0151500   7.2838800  24.9804390
  37.2844600   8.7560580  25.2085720  33.6276430   9.4508060  30.7998740
  32.8136270   9.8805220  31.0624530  34.0350630  10.0626470  30.1867790
  35.6901870   7.5055750  17.6999010  35.9650710   8.4134630  17.5718230
  35.5012610   7.4418280  18.6361000  35.5867210   5.4424740  22.6928440
  35.2110810   4.6752670  22.2609730  34.8570330   5.8247440  23.1803370
  20.1762970   6.1211880  29.3137490  20.5436010   6.0339280  30.1933510
  19.6073790   5.3578430  29.2144350  34.9766830   4.5896260  32.3267960
  34.7452920   4.3609010  31.4265910  35.2371380   5.5095810  32.2812850
  19.7278970   3.0320970  33.2195910  18.8335020   2.9987730  33.5589620
  20.2676520   3.2307760  33.9847160  18.3525120   2.9458240  20.7159480
  17.4489200   3.2088440  20.5411140  18.8365740   3.2169410  19.9359440
  34.8618170   3.6682230  25.9935680  35.3855650   3.1744880  25.3625850
  35.4477590   3.8032590  26.7383250  35.0407890   3.7522100  29.5155230
  34.0910600   3.7185640  29.6300220  35.2220900   4.6622210  29.2805000
  34.3518140   2.9255580  21.9328090  34.8477260   2.6926450  22.7176970
  34.1534210   2.0867420  21.5165730  33.6852480  14.2026660  24.3267010
  34.2811550  13.8811230  23.6501430  33.9430630  13.7298480  25.1180280
  21.5915050  10.6344570  34.4757640  21.5484680  10.2637480  35.3572100
  21.7226060  11.5722140  34.6159460  25.2921080  12.1904160  30.0767360
  25.0512440  12.4578720  29.1897880  26.2323720  12.3609890  30.1318220
  36.5525240  14.2098540  30.8778000  36.0583520  14.6067410  30.1605130
  35.9438530  13.5847750  31.2715280  21.4303080  13.5806820  31.5955420
  20.8363400  13.4491520  32.3345460  21.4226920  12.7444960  31.1297520
  34.2364690  14.8521960  28.1564740  33.7767660  15.6037770  27.7822760
  33.6077150  14.1328430  28.0979540  21.0615310  10.9465200  30.5463460
  20.3349370  10.3270490  30.4789410  21.1224460  11.3405810  29.6761540
  24.6660410  13.1610200  27.3312870  25.1825430  12.5497560  26.8061130
  25.3157790  13.6638980  27.8223880  27.4055910  14.0518690  28.1581850
  27.6933720  13.7972990  27.2814860  27.9179130  13.4996050  28.7487420
  19.3445310  14.2639590  23.7560220  19.1767350  13.6310270  24.4542110
  18.4779820  14.4698990  23.4054410  20.9508010  12.9572820  21.2010360
  20.4255630  13.3380850  20.4972320  20.8752590  13.5823590  21.9220070
  27.4728270  14.9734790  35.5250050  28.3995580  14.7379060  35.5686010
  27.4578700  15.8006790  35.0436080  35.7073330  14.5160360  22.5224300
  35.8825520  13.8298100  21.8785220  35.0094900  15.0407410  22.1300970
  23.5500980  14.9055200  20.0759610  24.2819800  14.6214480  19.5283500
  23.8094650  14.6668480  20.9658990  22.7115770  11.0219930  20.0805940
  22.0824650  11.4905030  20.6291770  22.8263600  10.1769150  20.5152130
  34.0405830  14.2004650  35.3491090  34.8331150  13.7053880  35.1417050
  34.3338980  14.8794790  35.9566700  30.1665490   5.0725590   6.2307140
  30.0859540   4.1580200   5.9598850  29.7529910   5.5692660   5.5246850
  28.2983530   6.8504610   8.1116410  27.5225630   6.3705050   8.4014980
  28.9496460   6.1710260   7.9372570  22.3149360   7.1624420   8.9892170
  21.4834240   6.9073130   9.3888680  22.9230340   7.2335190   9.7250090
  32.3190960  11.2564800   6.8915540  31.8572490  10.4852040   7.2202710
  33.1316510  11.2830870   7.3967990  22.2950620  11.1964510   9.1850190
  22.5978660  10.3062250   9.0060410  23.0394210  11.7534730   8.9572440
  20.7241310   2.1226310   2.7734560  19.8358010   2.4642280   2.6714440
  21.0082500   1.9226630   1.8815390  18.6874320   4.7231960   8.6574260
  19.2590430   3.9554160   8.6577900  18.6875860   5.0220720   7.7480870
  28.5454270  13.5422810   6.5119530  27.9265710  13.9980310   5.9413970
  29.4006050  13.6974270   6.1109230  27.7392520   9.5261800   8.1186570
  27.6700800   8.5851740   7.9575700  28.5012380   9.6163210   8.6909140
  20.5485860   2.6276820   9.0525530  21.2295970   2.8915190   9.6712930
  20.2333910   1.7877690   9.3863540  24.7410430   3.6744180   8.1398120
  25.2488650   4.1725150   8.7803140  25.2723670   2.8979380   7.9637480
  36.8421360   1.8449370  11.8427470  36.1373530   2.2331080  11.3242580
  37.1079280   2.5399660  12.4448400  29.4117620   8.4262050   3.9051440
  28.7934890   8.8911500   3.3414160  29.9240870   9.1189530   4.3220950
  24.2749380   7.9537920  10.5835040  23.9418760   8.5806840  11.2256110
  24.4516060   8.4799800   9.8036710  32.7883290   1.7683000   8.0511380
  32.0838860   2.0567890   8.6314490  33.1495450   2.5783110   7.6910940
  23.4868480   9.9218720  12.3984220  24.1042480  10.5969800  12.1168670
  22.6261600  10.3306700  12.3071720  34.4046070  11.3858130  10.3138860
  33.7209590  12.0557240  10.3055530  34.9440360  11.5838780   9.5483720
  31.9404810  13.2302260   9.0284040  31.9531970  12.8264550   8.1606300
  31.3880030  14.0049550   8.9245470  33.2350230   9.9518480   4.1174210
  33.1246560   9.0092810   4.2423630  33.2318480  10.3134120   5.0036970
  31.3390250   8.1332100  10.3566650  31.7559040   7.9192210   9.5220110
  32.0630070   8.3904890  10.9275270  28.7770510   5.5783800   3.4736700
  27.8499790   5.5121180   3.7025170  28.9295330   6.5163930   3.3591940
  35.2852350   6.5319320  10.4482890  34.4570980   6.6012410   9.9733020
  35.8802830   7.1173630   9.9798720  32.8067800   7.1404100   3.9771950
  32.1880220   6.8023650   3.3298250  32.7892250   6.4963860   4.6851140
  32.2494360   3.3188640  11.3937760  31.8365540   4.1442350  11.6477750
  31.5170310   2.7333680  11.2014120  24.3827150   6.1048540   6.2556430
  23.9784150   5.3925790   5.7602330  24.4690270   5.7601780   7.1444470
  24.8508850   9.7916100   8.4195640  24.5537140   9.1861570   7.7403420
  25.8008670   9.8293410   8.3085000  23.0955770   2.8791750  10.0355470
  23.6470360   2.9887090   9.2608720  23.6099280   3.2529350  10.7510700
  32.9394460  13.3647970  12.0818740  32.4625020  14.1720160  11.8891350
  32.2556250  12.7126300  12.2344950  23.9427280   9.5297790  15.0703440
  23.0455810   9.7537760  15.3176840  23.9680150   9.6532730  14.1214840
  22.7698500   6.4011110  13.6460810  22.6306270   7.2733910  14.0148210
  21.8879860   6.0583920  13.5008750  29.0927880  11.3186980   4.9525940
  29.5323790  12.0611310   4.5381330  29.0314770  11.5613550   5.8764900
  24.5678850  12.3432810  15.8545960  24.5394280  12.7475760  14.9874390
  24.4043820  11.4143170  15.6917560  21.0831780   4.9993520   3.7563080
  20.9629380   5.7255610   3.1444350  20.7732670   4.2296430   3.2790990
  36.5193670  13.1259910  17.1510130  36.9953390  13.6042800  17.8299210
  37.1400830  13.0577400  16.4255630  18.7217150   8.1708660   9.5631720
  18.7997570   8.3057430   8.6187440  19.3358830   7.4624550   9.7559840
  19.9664780   9.8708850   5.9737900  19.5592860  10.0123440   5.1191500
  20.8577790   9.5869010   5.7709110  35.9226920  10.3172760  14.3110140
  36.0489980  10.0784640  13.3927320  35.9648300   9.4857300  14.7832220
  29.7843660  14.0200760  12.8804950  30.2988330  13.9308770  13.6827380
  28.9412740  14.3660460  13.1732860  31.7598060  14.3056100   2.3088950
  31.5999200  14.0159040   3.2070780  31.5944770  13.5296230   1.7734180
  24.2386440  14.0854630   4.0860570  24.0628920  13.1690170   3.8728370
  23.3842180  14.4441920   4.3258370  31.0274120  13.4406370   4.9435440
  31.4831070  12.6595750   5.2574060  31.3666640  14.1513190   5.4876620
  18.7776670   9.2122830  12.1026180  18.9407710   8.7428190  11.2845550
  19.2429120   8.7046390  12.7675020  32.8369760   2.4306060  13.8718730
  31.9863350   2.1311810  14.1927800  32.6771550   2.6748070  12.9602550
  29.9319470   3.9307810  15.9717520  30.2572880   3.0971560  15.6319750
  30.7199800   4.4536330  16.1195850  23.3409660   3.4662160   4.8668000
  23.1150580   3.2499330   5.7714620  22.5602190   3.8990620   4.5213970
  30.5707420   3.4725530   3.4658650  29.9716310   4.1961330   3.2822270
  31.1187030   3.4102310   2.6835100  25.7808870   4.3647740  15.5328270
  25.6852470   3.4242470  15.3828670  26.6240850   4.5862810  15.1376340
  29.7627430   4.6994820   9.5912710  29.0308550   5.2081630   9.9402810
  29.3651770   3.8824800   9.2901490  20.3515650   8.5874260  14.2621990
  19.9670440   7.9467930  14.8604950  20.6627840   9.2910380  14.8316720
  26.5012790   5.4350800   9.7430610  26.8682920   4.9609370  10.4891950
  26.3117850   6.3092370  10.0838950  24.2912160   4.4759440  12.0614820
  23.9869230   5.3551420  12.2865180  25.2458620   4.5359230  12.0972260
  22.8193950   8.6820430   2.6581670  22.0456210   8.1418050   2.4980390
  23.5488580   8.1627040   2.3199430  33.5781930   7.6785790   8.4508060
  34.2981050   8.1741080   8.0604170  33.3763750   7.0003680   7.8061930
  28.9600730   7.7494850  14.3377060  28.8938040   6.8290520  14.0834650
  28.3305870   7.8470290  15.0521700  22.8631350   8.3500810   6.2960480
  23.3810020   7.5469070   6.2417370  22.4115370   8.2879950   7.1377310
  20.3475890   5.3162180  13.2086180  19.9890830   5.9816030  13.7959520
  20.0530450   4.4845730  13.5798800  23.5489010   5.7746420  16.0925730
  23.2489150   5.9203600  15.1953550  24.3200250   5.2151710  15.9999120
  28.8917460  10.5715420  14.0880860  28.9062000   9.6396380  13.8699770
  28.1842560  10.6575180  14.7270630  35.1028670   7.2122760  13.4349440
  34.3776860   7.8051540  13.2378830  35.6304130   7.2046300  12.6362810
  35.0541780  11.6097500   3.0861600  34.4117940  10.9553120   3.3605320
  34.6672440  12.0152590   2.3102270  30.6328260   8.9382930   6.9333290
  30.9852080   8.3411060   6.2734660  29.7490590   8.6127160   7.1041540
  26.7191540   9.6980620   4.3403700  27.4062670  10.2449830   4.7211290
  25.9323960  10.2421350   4.3753310  26.0218750   6.7026650   3.9529060
  26.4781530   7.5131900   4.1789250  25.6706960   6.3849790   4.7847550
  28.3251360  12.2132990  11.1821360  28.9693580  12.4192370  11.8594780
  28.6880800  11.4521390  10.7292210  29.5983440  10.2165340   9.8998810
  30.2405670   9.5158500  10.0130980  30.1232790  10.9963780   9.7195700
  31.3721060  11.0160240  13.1034870  31.7077300  11.6026930  13.7812790
  30.4521400  10.8852950  13.3332660  19.2097050  12.7935680  14.8724810
  19.3188170  11.8530420  14.7320200  18.5577610  13.0590430  14.2238540
  27.2009640  11.0651570  16.2722930  26.8806510  10.3460810  16.8168620
  26.5268000  11.7406640  16.3458990  25.7509300   2.5320620   3.8605170
  25.0425450   3.0006960   4.3018780  26.0353780   1.8742630   4.4950360
  27.3765230   3.9517320  11.8597700  27.8750480   4.4263140  12.5249550
  27.5188180   3.0280840  12.0667730  26.8701520  14.4926580   4.5728940
  27.1243020  14.4547970   3.6508310  25.9214000  14.3659910   4.5657190
  32.8754100   5.4118460   6.1487450  31.9344240   5.4268690   6.3235140
  33.1898170   4.6254420   6.5947750  34.8779680  12.5827310   7.8241710
  35.0027100  13.4058480   8.2965520  35.7445240  12.3718040   7.4765860
  22.3497210  14.6758520   7.4958840  23.0859690  14.1273980   7.7667410
  22.7338130  15.5414530   7.3564830  19.2342690  10.7432090   3.3700350
  18.3082470  10.9853230   3.3605760  19.6999120  11.5706350   3.2485100
  21.3555490  13.8604590  16.6844420  22.1568220  14.1816640  17.0979820
  20.8407310  13.5000170  17.4064330  30.1920120   9.9684460  16.6319830
  29.5858280   9.9916060  15.8915580  29.8874230   9.2367500  17.1687080
  31.6220490  13.6964750  15.2429240  32.5742240  13.6122770  15.1929480
  31.4748710  14.3606460  15.9163030  19.0753300   6.3478050  15.6280470
  19.5792320   5.7685330  16.1996700  18.3360720   6.6318280  16.1656840
  26.1291240   7.7549040  15.1615990  25.3636910   8.3234040  15.0770660
  26.3107200   7.4625250  14.2684220  33.2714590   9.4854370  15.7191010
  34.0124060   9.8230130  15.2158470  32.5087270   9.6546430  15.1660780
  21.1076380   4.4907640  16.5230540  21.1481720   4.1921510  17.4315770
  21.9621880   4.8915250  16.3638060  23.0482190   3.0699740  14.4905030
  22.5178650   2.5790690  13.8628370  23.7170260   3.4983940  13.9562960
  31.9460250   7.5369200  14.2546220  32.3601270   7.6914280  15.1036640
  31.0111250   7.6624420  14.4172000  32.4182420   4.8765360  16.2585370
  33.0003190   4.1217680  16.1705850  32.5944190   5.4072800  15.4816850
  26.7075480   7.4889680  12.2242150  27.1263590   8.3322410  12.0518390
  25.7884110   7.6261720  11.9948930  29.0439380   5.2205860  13.6079990
  29.1635590   4.6247000  14.3474830  29.9033380   5.2575550  13.1881290
  31.3827280   5.7743050  12.1842500  30.8562500   6.2985670  11.5807640
  31.7258620   6.4070440  12.8152230  24.5582900  13.7942690  13.3399880
  24.0203990  14.5188750  13.0208580  24.8116860  13.3173030  12.5497220
  27.4145110  15.0293900  13.5986530  27.3403810  15.9329040  13.9058900
  26.5123950  14.7105800  13.5708600  18.8172400  12.3568490   6.9020150
  19.1475410  11.4889550   6.6698790  19.2463400  12.5627010   7.7325110
  23.4134320  10.6877500   4.5622120  23.1129860  10.5642470   5.4626030
  23.3071810   9.8286090   4.1537850  19.3062610  13.2239080   9.6401780
  18.8693600  13.4039880  10.4725930  19.8740290  13.9813700   9.4983500
  34.9424790  12.7256080  13.9279090  34.3426780  12.7848640  13.1843010
  35.0718690  11.7861060  14.0575940  35.6382700   7.2121380   1.7683000
  36.4001610   7.7818030   1.8742690  35.6537070   6.6448580   2.5391310
  19.1387040   5.7359310   5.9990660  18.4835880   5.4670950   5.3550360
  19.9764990   5.6263790   5.5492640  36.6442670   8.0671480   6.6124930
  37.0151500   7.2838800   6.2060900  37.2844600   8.7560580   6.4342230
  33.6276430   9.4508060  12.0255250  32.8136270   9.8805220  12.2881040
  34.0350630  10.0626470  11.4124300  35.5867210   5.4424740   3.9184950
  35.2110810   4.6752670   3.4866240  34.8570330   5.8247440   4.4059880
  20.1762970   6.1211880  10.5394000  20.5436010   6.0339280  11.4190020
  19.6073790   5.3578430  10.4400860  34.9766830   4.5896260  13.5524470
  34.7452920   4.3609010  12.6522420  35.2371380   5.5095810  13.5069360
  19.7278970   3.0320970  14.4452420  18.8335020   2.9987730  14.7846130
  20.2676520   3.2307760  15.2103670  34.8618170   3.6682230   7.2192190
  35.3855650   3.1744880   6.5882360  35.4477590   3.8032590   7.9639760
  35.0407890   3.7522100  10.7411740  34.0910600   3.7185640  10.8556730
  35.2220900   4.6622210  10.5061510  34.3518140   2.9255580   3.1584600
  34.8477260   2.6926450   3.9433480  34.1534210   2.0867420   2.7422240
  33.6852480  14.2026660   5.5523520  34.2811550  13.8811230   4.8757940
  33.9430630  13.7298480   6.3436790  21.5915050  10.6344570  15.7014150
  21.5484680  10.2637480  16.5828610  21.7226060  11.5722140  15.8415970
  25.2921080  12.1904160  11.3023870  25.0512440  12.4578720  10.4154390
  26.2323720  12.3609890  11.3574730  36.5525240  14.2098540  12.1034510
  36.0583520  14.6067410  11.3861640  35.9438530  13.5847750  12.4971790
  21.4303080  13.5806820  12.8211930  20.8363400  13.4491520  13.5601970
  21.4226920  12.7444960  12.3554030  34.2364690  14.8521960   9.3821250
  33.7767660  15.6037770   9.0079270  33.6077150  14.1328430   9.3236050
  21.0615310  10.9465200  11.7719970  20.3349370  10.3270490  11.7045920
  21.1224460  11.3405810  10.9018050  24.6660410  13.1610200   8.5569380
  25.1825430  12.5497560   8.0317640  25.3157790  13.6638980   9.0480390
  27.4055910  14.0518690   9.3838360  27.6933720  13.7972990   8.5071370
  27.9179130  13.4996050   9.9743930  19.3445310  14.2639590   4.9816730
  19.1767350  13.6310270   5.6798620  18.4779820  14.4698990   4.6310920
  20.9508010  12.9572820   2.4266870  20.4255630  13.3380850   1.7228830
  20.8752590  13.5823590   3.1476580  27.4728270  14.9734790  16.7506560
  28.3995580  14.7379060  16.7942520  27.4578700  15.8006790  16.2692590
  35.7073330  14.5160360   3.7480810  35.8825520  13.8298100   3.1041730
  35.0094900  15.0407410   3.3557480  34.0405830  14.2004650  16.5747600
  34.8331150  13.7053880  16.3673560  34.3338980  14.8794790  17.1823210
  11.3922000  80.1699550  81.3281100  11.3116050  79.2554160  81.0572810
  10.9786420  80.6666620  80.6220810   9.5240040  81.9478570  83.2090370
   8.7482140  81.4679010  83.4988940  10.1752970  81.2684220  83.0346530
   3.5405870  82.2598380  84.0866130   2.7090750  82.0047090  84.4862640
   4.1486850  82.3309150  84.8224050   8.9649030  84.6235760  83.2160530
   8.8957310  83.6825700  83.0549660   9.7268890  84.7137170  83.7883100
   9.9954200  77.4306140  83.4429460  10.3719020  76.5578020  83.3303130
   9.8973710  77.7664840  82.5519900   4.1259210  75.8031770  78.9046900
   4.2325960  76.7035500  79.2115660   3.2151570  75.7549740  78.6141550
  13.7778320  74.9256580  80.3757800  14.5987940  74.4353150  80.4183280
  13.8112400  75.5154240  81.1289640   5.9666940  78.7718140  83.2372080
   6.4745160  79.2699110  83.8777100   6.4980180  77.9953340  83.0611440
  18.0677870  76.9423330  86.9401430  17.3630040  77.3305040  86.4216540
  18.3335790  77.6373620  87.5422360   4.2503040  73.4116700  87.5035500
   4.2521480  73.9289090  86.6981400   3.4207350  72.9346880  87.4805430
  10.6374130  83.5236010  79.0025400  10.0191400  83.9885460  78.4388120
  11.1497380  84.2163490  79.4194910   5.5005890  83.0511880  85.6809000
   5.1675270  83.6780800  86.3230070   5.6772570  83.5773760  84.9010670
  14.0139800  76.8656960  83.1485340  13.3095370  77.1541850  83.7288450
  14.3751960  77.6757070  82.7884900   3.9318370  75.1226660  85.5105950
   4.2735180  75.9668710  85.2159820   2.9934180  75.2710400  85.6271290
  17.0826720  76.3111750  83.5394550  16.1351630  76.3450730  83.6709980
  17.4076710  77.1250700  83.9243910   7.6146260  72.6108930  81.8350540
   7.9221240  72.0555820  81.1186040   6.6846960  72.7453390  81.6523530
  12.5646760  83.2306060  85.4540610  12.9815550  83.0166170  84.6194070
  13.2886580  83.4878850  86.0249230  10.0027020  80.6757760  78.5710660
   9.0756300  80.6095140  78.7999130  10.1551840  81.6137890  78.4565900
   9.9896100  76.9474760  75.5677820   9.0499770  77.1088720  75.6530280
  10.3079360  77.6660440  75.0213810  16.5108860  81.6293280  85.5456850
  15.6827490  81.6986370  85.0706980  17.1059340  82.2147590  85.0772680
  14.0324310  82.2378060  79.0745910  13.4136730  81.8997610  78.4272210
  14.0148760  81.5937820  79.7825100  13.4750870  78.4162600  86.4911720
  13.0622050  79.2416310  86.7451710  12.7426820  77.8307640  86.2988080
   5.6083660  81.2022500  81.3530390   5.2040660  80.4899750  80.8576290
   5.6946780  80.8575740  82.2418430   6.0765360  84.8890060  83.5169600
   5.7793650  84.2835530  82.8377380   7.0265180  84.9267370  83.4058960
   4.3212280  77.9765710  85.1329430   4.8726870  78.0861050  84.3582680
   4.8355790  78.3503310  85.8484660  12.2089010  81.4764870  76.0818660
  12.6482290  80.6387300  75.9356480  12.9217430  82.1094270  76.1682800
   3.9955010  81.4985070  88.7434770   3.8562780  82.3707870  89.1122170
   3.1136370  81.1557880  88.5982710  15.7906150  72.7307680  74.3959700
  15.4778810  72.8234510  75.2958770  16.5518620  73.3088710  74.3457130
   2.3088290  80.0967480  78.8537040   2.1885890  80.8229570  78.2418310
   1.9989180  79.3270390  78.3764950   4.7751950  73.4402550  82.2360710
   4.3320100  74.2212090  81.9045230   5.3336940  73.7632440  82.9431650
   9.0621760  76.3071070  87.8396030   8.6001130  76.5154090  88.6515970
   8.6599870  75.4930420  87.5366700   7.8910770  73.0613250  77.1166540
   7.2664950  73.0573120  77.8419850   7.8040890  72.1944210  76.7202510
   6.8127850  73.9849880  84.0950310   7.1100180  74.8912710  84.0142330
   7.3613410  73.4968660  83.4809880   4.5666170  78.5636120  79.9641960
   4.3407090  78.3473290  80.8688580   3.7858700  78.9964580  79.6187930
  11.7963930  78.5699490  78.5632610  11.1972820  79.2935290  78.3796230
  12.3443540  78.5076270  77.7809060  10.4028800  77.2063030  80.5935890
  10.7958370  77.5235230  79.7804580  10.7645650  76.3274910  80.7080410
  10.9883940  79.7968780  84.6886670  10.2565060  80.3055590  85.0376770
  10.5908280  78.9798760  84.3875450   7.4261330  76.4722980  83.0939160
   7.4297390  76.0312930  82.2443700   8.3212450  76.7940310  83.2010980
   3.2763710  76.3549470  82.0533370   2.9363760  76.8324700  82.8100420
   2.5141030  75.9014590  81.6934470   7.4881480  77.4735060  76.0845920
   7.6094300  77.4321540  77.0331740   7.1029990  78.3359210  75.9292650
  11.4509850  75.2502460  84.1009610  11.4682590  75.7011110  84.9451460
  11.2025430  74.3508100  84.3143050   6.5002980  79.7836200  75.4829220
   5.9319880  79.3354450  74.8565130   7.2091980  80.1428980  74.9494370
   7.7269300  80.5324760  84.8404570   8.0939430  80.0583330  85.5865910
   7.5374360  81.4066330  85.1812910   5.5168670  79.5733400  87.1588780
   5.2125740  80.4525380  87.3839140   6.4715130  79.6333190  87.1946220
   4.0450460  83.7794390  77.7555630   3.2712720  83.2392010  77.5954350
   4.7745090  83.2601000  77.4173390  14.8038440  82.7759750  83.5482020
  15.5237560  83.2715040  83.1578130  14.6020260  82.0977640  82.9035890
  10.2648380  74.1697710  77.6911410   9.4512990  73.6710880  77.6156720
  10.0710330  75.0095960  77.2747760  12.9796770  78.5417360  75.9873570
  13.8676390  78.8534590  75.8124910  12.9501860  77.6689610  75.5954150
   4.0887860  83.4474770  81.3934440   4.6066530  82.6443030  81.3391330
   3.6371880  83.3853910  82.2351270  15.2511040  79.8529200  75.4553430
  15.1674760  80.2843420  74.6049870  15.9705230  80.3127550  75.8880250
  16.3285180  82.3096720  88.5323400  15.6033370  82.9025500  88.3352790
  16.8560640  82.3020260  87.7336770  11.8584770  84.0356890  82.0307250
  12.2108590  83.4385020  81.3708620  10.9747100  83.7101120  82.2015500
   7.2475260  81.8000610  79.0503020   7.7038040  82.6105860  79.2763210
   6.8963470  81.4823750  79.8821510   3.1487040  72.1438260  79.5225540
   3.0201670  72.1356160  80.4710460   2.3249060  72.4821350  79.1716550
  14.2511920  83.5159860  76.3826070  13.9633620  83.9772550  77.1703950
  15.0464090  83.0557630  76.6510290  11.6419750  76.3951690  86.7333690
  12.0100570  75.5746900  87.0613260  10.7817950  76.4553580  87.1489340
  15.0081780  75.3508630  77.5421250  14.3794940  75.4554300  76.8279480
  14.5133700  75.5705410  78.3315130   6.9765810  77.6294580  78.9579130
   6.2681960  78.0980920  79.3992740   7.2610290  76.9716590  79.5924320
   8.6021740  79.0491280  86.9571660   9.1006990  79.5237100  87.6223510
   8.7444690  78.1254800  87.1641690  11.0081240  74.3545240  80.3974920
  10.8849020  74.3731370  79.4484430  11.9565800  74.4024180  80.5173320
   5.1800830  75.9379660  76.3329840   6.0291360  76.3749810  76.2670030
   4.8132100  76.2499920  77.1601900  15.8088600  75.2659240  87.8000050
  15.3062200  76.0064640  88.1393860  16.6245260  75.6543240  87.4836840
  14.1010610  80.5092420  81.2461410  13.1600750  80.5242650  81.4209100
  14.4154680  79.7228380  81.6921710   4.0792250  82.1912020  74.8065370
   4.8455520  82.0793380  75.3690800   4.1566940  81.4949990  74.1542140
   2.7739010  79.6237090  75.4898260   2.8542600  78.6764600  75.6015660
   3.6658760  79.9543970  75.5958920   7.2033430  84.1666200  74.2800720
   7.0984070  83.5518550  75.0062100   7.0357650  83.6432090  73.4963730
  10.4436160  83.2286230  74.8842710   9.8946260  83.6755530  75.5285450
  11.0655420  82.7235480  75.4080380   6.1111280  82.1877150  76.7808010
   6.5327700  82.0217020  77.6239400   6.2362120  81.3777380  76.2863150
   8.6238920  81.2114760  74.0285110   9.1444580  80.4963780  73.6626260
   9.2707320  81.8500630  74.3285620   7.5272440  73.6909310  86.7003670
   7.0789740  73.7133570  85.8549220   6.8937640  73.2928330  87.2973970
   7.9331990  82.5863640  87.3216110   8.3520100  83.4296370  87.1492350
   7.0140620  82.7235680  87.0922890  12.6083790  80.8717010  87.2816460
  12.0819010  81.3959630  86.6781600  12.9515130  81.5044400  87.9126190
   5.0070180  78.2610380  73.7266170   4.8059240  77.3977740  74.0879510
   4.8362230  78.1743740  72.7887770  12.4858490  73.0718610  76.2553050
  12.7660780  72.2286510  76.6112470  11.7124220  73.3041720  76.7691800
   3.8052980  75.3611000  73.7144050   4.1078880  75.3678430  72.8063200
   4.5447570  75.0108860  74.2111710   7.0237910  74.3045620  74.7000250
   6.6759910  73.6269610  74.1202700   7.2250680  73.8435130  75.5143640
  16.8639210  82.3095340  76.8656960  17.6258120  82.8791990  76.9716650
  16.8793580  81.7422540  77.6365270  17.8699180  83.1645440  81.7098890
  18.2408010  82.3812760  81.3034860  18.5101110  83.8534540  81.5316190
  16.9158380  82.6029710  74.0229480  17.1907220  83.5108590  73.8948700
  16.7269120  82.5392240  74.9591470  13.3133990  75.6274560  75.3183110
  13.7318870  75.4405540  74.4779770  13.0070050  74.7753610  75.6286040
  16.8123720  80.5398700  79.0158910  16.4367320  79.7726630  78.5840200
  16.0826840  80.9221400  79.5033840  16.2023340  79.6870220  88.6498430
  15.9709430  79.4582970  87.7496380  16.4627890  80.6069770  88.6043320
  16.0874680  78.7656190  82.3166150  16.6112160  78.2718840  81.6856320
  16.6734100  78.9006550  83.0613720  16.2664400  78.8496060  85.8385700
  15.3167110  78.8159600  85.9530690  16.4477410  79.7596170  85.6035470
   1.7683000  73.1537070  73.9886980   2.4911130  73.6946010  74.3068200
   2.0407520  72.8800490  73.1128520  15.5774650  78.0229540  78.2558560
  16.0733770  77.7900410  79.0407440  15.3790720  77.1841380  77.8396200
  17.0061810  76.6590490  80.7896240  16.8961090  76.5046530  81.7278510
  17.7669400  76.1311430  80.5471650  15.3527530  72.5984620  87.2479240
  15.9899750  73.2118760  87.6138430  15.5002420  72.6345280  86.3028470
  17.8952080  74.4898410  74.0302380  18.8201390  74.3579590  73.8220670
  17.8727870  74.5691230  74.9838830  17.9690570  75.2609070  76.6559090
  17.1742070  75.1954190  77.1852000  18.1733850  76.1959710  76.6444440
  12.1014610  71.9713010  86.1215920  11.2274450  72.3048120  85.9188850
  11.9925360  71.4986190  86.9467790  13.0086590  74.1783880  87.5057640
  12.6799950  73.3635640  87.1259370  13.9568890  74.1353690  87.3823330
   9.8489430  72.8882850  85.0608830   9.0661220  73.3628350  85.3405590
   9.5552360  71.9837680  84.9522010  14.4010500  73.5905950  83.1057920
  14.8418590  73.5351050  82.2579520  14.1318090  74.5063960  83.1768100
  16.2649070  73.2221190  81.1166740  16.2037470  72.2782410  80.9697760
  17.0441100  73.3301280  81.6620200   7.7343650  75.3069600  80.5724860
   6.9218160  74.9326490  80.2320740   8.2385290  74.5514680  80.8746050
  12.2368630  71.9712050  81.8107930  12.8398000  72.5432260  82.2856450
  11.4961620  72.5351490  81.5881830  15.3803230  72.3733610  77.0848210
  15.5753860  73.2717060  77.3515640  14.5933100  72.1420690  77.5781160
   3.5654990  73.7194380  76.1224520   4.0947750  72.9324180  75.9932470
   4.1983310  74.3985570  76.3560050   5.7592830  73.4569520  79.1769910
   5.1295570  72.7556830  79.3440040   5.2197970  74.2173650  78.9603070
  11.3922000  80.1699550  62.5537610  11.3116050  79.2554160  62.2829320
  10.9786420  80.6666620  61.8477320   9.5240040  81.9478570  64.4346880
   8.7482140  81.4679010  64.7245450  10.1752970  81.2684220  64.2603040
   3.5405870  82.2598380  65.3122640   2.7090750  82.0047090  65.7119150
   4.1486850  82.3309150  66.0480560   8.9649030  84.6235760  64.4417040
   8.8957310  83.6825700  64.2806170   9.7268890  84.7137170  65.0139610
   9.9954200  77.4306140  64.6685970  10.3719020  76.5578020  64.5559640
   9.8973710  77.7664840  63.7776410   4.1259210  75.8031770  60.1303410
   4.2325960  76.7035500  60.4372170   3.2151570  75.7549740  59.8398060
  13.7778320  74.9256580  61.6014310  14.5987940  74.4353150  61.6439790
  13.8112400  75.5154240  62.3546150   5.9666940  78.7718140  64.4628590
   6.4745160  79.2699110  65.1033610   6.4980180  77.9953340  64.2867950
  18.0677870  76.9423330  68.1657940  17.3630040  77.3305040  67.6473050
  18.3335790  77.6373620  68.7678870   4.2503040  73.4116700  68.7292010
   4.2521480  73.9289090  67.9237910   3.4207350  72.9346880  68.7061940
  10.6374130  83.5236010  60.2281910  10.0191400  83.9885460  59.6644630
  11.1497380  84.2163490  60.6451420   5.5005890  83.0511880  66.9065510
   5.1675270  83.6780800  67.5486580   5.6772570  83.5773760  66.1267180
  14.0139800  76.8656960  64.3741850  13.3095370  77.1541850  64.9544960
  14.3751960  77.6757070  64.0141410   3.9318370  75.1226660  66.7362460
   4.2735180  75.9668710  66.4416330   2.9934180  75.2710400  66.8527800
  17.0826720  76.3111750  64.7651060  16.1351630  76.3450730  64.8966490
  17.4076710  77.1250700  65.1500420   7.6146260  72.6108930  63.0607050
   7.9221240  72.0555820  62.3442550   6.6846960  72.7453390  62.8780040
  12.5646760  83.2306060  66.6797120  12.9815550  83.0166170  65.8450580
  13.2886580  83.4878850  67.2505740  10.0027020  80.6757760  59.7967170
   9.0756300  80.6095140  60.0255640  10.1551840  81.6137890  59.6822410
   9.9896100  76.9474760  56.7934330   9.0499770  77.1088720  56.8786790
  10.3079360  77.6660440  56.2470320  16.5108860  81.6293280  66.7713360
  15.6827490  81.6986370  66.2963490  17.1059340  82.2147590  66.3029190
  14.0324310  82.2378060  60.3002420  13.4136730  81.8997610  59.6528720
  14.0148760  81.5937820  61.0081610  13.4750870  78.4162600  67.7168230
  13.0622050  79.2416310  67.9708220  12.7426820  77.8307640  67.5244590
   5.6083660  81.2022500  62.5786900   5.2040660  80.4899750  62.0832800
   5.6946780  80.8575740  63.4674940   6.0765360  84.8890060  64.7426110
   5.7793650  84.2835530  64.0633890   7.0265180  84.9267370  64.6315470
   4.3212280  77.9765710  66.3585940   4.8726870  78.0861050  65.5839190
   4.8355790  78.3503310  67.0741170   5.1683790  84.6271750  71.3933910
   4.2712320  84.8511720  71.6407310   5.1936660  84.7506690  70.4445310
  12.2089010  81.4764870  57.3075170  12.6482290  80.6387300  57.1612990
  12.9217430  82.1094270  57.3939310   3.9955010  81.4985070  69.9691280
   3.8562780  82.3707870  70.3378680   3.1136370  81.1557880  69.8239220
  15.7906150  72.7307680  55.6216210  15.4778810  72.8234510  56.5215280
  16.5518620  73.3088710  55.5713640   2.3088290  80.0967480  60.0793550
   2.1885890  80.8229570  59.4674820   1.9989180  79.3270390  59.6021460
  17.0007440  77.4679180  71.5990350  16.3851710  77.9758850  71.0705810
  16.6803860  76.5677510  71.5416290   4.7751950  73.4402550  63.4617220
   4.3320100  74.2212090  63.1301740   5.3336940  73.7632440  64.1688160
   9.0621760  76.3071070  69.0652540   8.6001130  76.5154090  69.8772480
   8.6599870  75.4930420  68.7623210  14.0626270  77.5280020  70.1949200
  13.2119860  77.2285770  70.5158270  13.9028060  77.7722030  69.2833020
  11.1575980  79.0281770  72.2947990  11.4829390  78.1945520  71.9550220
  11.9456310  79.5510290  72.4426320   7.8910770  73.0613250  58.3423050
   7.2664950  73.0573120  59.0676360   7.8040890  72.1944210  57.9459020
   6.8127850  73.9849880  65.3206820   7.1100180  74.8912710  65.2398840
   7.3613410  73.4968660  64.7066390   4.5666170  78.5636120  61.1898470
   4.3407090  78.3473290  62.0945090   3.7858700  78.9964580  60.8444440
  11.7963930  78.5699490  59.7889120  11.1972820  79.2935290  59.6052740
  12.3443540  78.5076270  59.0065570   7.0065380  79.4621700  71.8558740
   6.9108980  78.5216430  71.7059140   7.8497360  79.6836770  71.4606810
  10.4028800  77.2063030  61.8192400  10.7958370  77.5235230  61.0061090
  10.7645650  76.3274910  61.9336920   8.7120970  75.9570340  73.0789260
   8.0219290  75.7642540  73.7135350   9.4553270  76.2404980  73.6113560
  10.9883940  79.7968780  65.9143180  10.2565060  80.3055590  66.2633280
  10.5908280  78.9798760  65.6131960   7.4261330  76.4722980  64.3195670
   7.4297390  76.0312930  63.4700210   8.3212450  76.7940310  64.4267490
   3.2763710  76.3549470  63.2789880   2.9363760  76.8324700  64.0356930
   2.5141030  75.9014590  62.9190980   7.4881480  77.4735060  57.3102430
   7.6094300  77.4321540  58.2588250   7.1029990  78.3359210  57.1549160
  11.4509850  75.2502460  65.3266120  11.4682590  75.7011110  66.1707970
  11.2025430  74.3508100  65.5399560   6.5002980  79.7836200  56.7085730
   5.9319880  79.3354450  56.0821640   7.2091980  80.1428980  56.1750880
  14.8780600  72.6634640  71.1652500  15.2026370  71.9324300  71.6910480
  14.9137110  72.3448280  70.2633490   7.7269300  80.5324760  66.0661080
   8.0939430  80.0583330  66.8122420   7.5374360  81.4066330  66.4069420
   5.5168670  79.5733400  68.3845290   5.2125740  80.4525380  68.6095650
   6.4715130  79.6333190  68.4202730   4.0450460  83.7794390  58.9812140
   3.2712720  83.2392010  58.8210860   4.7745090  83.2601000  58.6429900
  14.8038440  82.7759750  64.7738530  15.5237560  83.2715040  64.3834640
  14.6020260  82.0977640  64.1292400  10.2648380  74.1697710  58.9167920
   9.4512990  73.6710880  58.8413230  10.0710330  75.0095960  58.5004270
  10.1857240  82.8468810  70.6607530  10.1194550  81.9264480  70.4065120
   9.5562380  82.9444250  71.3752170  12.9796770  78.5417360  57.2130080
  13.8676390  78.8534590  57.0381420  12.9501860  77.6689610  56.8210660
   4.0887860  83.4474770  62.6190950   4.6066530  82.6443030  62.5647840
   3.6371880  83.3853910  63.4607780   4.7745520  80.8720380  72.4156200
   4.4745660  81.0177560  71.5184020   5.5456760  80.3125670  72.3229590
  15.2511040  79.8529200  56.6809940  15.1674760  80.2843420  55.8306380
  15.9705230  80.3127550  57.1136760  16.3285180  82.3096720  69.7579910
  15.6033370  82.9025500  69.5609300  16.8560640  82.3020260  68.9593280
  11.8584770  84.0356890  63.2563760  12.2108590  83.4385020  62.5965130
  10.9747100  83.7101120  63.4272010   7.2475260  81.8000610  60.2759530
   7.7038040  82.6105860  60.5019720   6.8963470  81.4823750  61.1078020
   3.1487040  72.1438260  60.7482050   3.0201670  72.1356160  61.6966970
   2.3249060  72.4821350  60.3973060  14.2511920  83.5159860  57.6082580
  13.9633620  83.9772550  58.3960460  15.0464090  83.0557630  57.8766800
  11.6419750  76.3951690  67.9590200  12.0100570  75.5746900  68.2869770
  10.7817950  76.4553580  68.3745850  15.0081780  75.3508630  58.7677760
  14.3794940  75.4554300  58.0535990  14.5133700  75.5705410  59.5571640
   6.9765810  77.6294580  60.1835640   6.2681960  78.0980920  60.6249250
   7.2610290  76.9716590  60.8180830   8.6021740  79.0491280  68.1828170
   9.1006990  79.5237100  68.8480020   8.7444690  78.1254800  68.3898200
  11.0081240  74.3545240  61.6231430  10.8849020  74.3731370  60.6740940
  11.9565800  74.4024180  61.7429830   5.1800830  75.9379660  57.5586350
   6.0291360  76.3749810  57.4926540   4.8132100  76.2499920  58.3858410
  15.8088600  75.2659240  69.0256560  15.3062200  76.0064640  69.3650370
  16.6245260  75.6543240  68.7093350  14.1010610  80.5092420  62.4717920
  13.1600750  80.5242650  62.6465610  14.4154680  79.7228380  62.9178220
   4.0792250  82.1912020  56.0321880   4.8455520  82.0793380  56.5947310
   4.1566940  81.4949990  55.3798650   2.7739010  79.6237090  56.7154770
   2.8542600  78.6764600  56.8272170   3.6658760  79.9543970  56.8215430
  11.4176630  85.0658420  72.9550300  10.8114790  85.0890020  72.2146050
  11.1130740  84.3341460  73.4917550   7.2033430  84.1666200  55.5057230
   7.0984070  83.5518550  56.2318610   7.0357650  83.6432090  54.7220240
   7.3547750  82.8523000  71.4846460   6.5893420  83.4208000  71.4001130
   7.5363710  82.5599210  70.5914690  10.4436160  83.2286230  56.1099220
   9.8946260  83.6755530  56.7541960  11.0655420  82.7235480  56.6336890
  14.4971100  84.5828330  72.0421480  15.2380570  84.9204090  71.5388940
  13.7343780  84.7520390  71.4891250   2.3332890  79.5881600  72.8461010
   2.3738230  79.2895470  73.7546240   3.1878390  79.9889210  72.6868530
   6.1111280  82.1877150  58.0064520   6.5327700  82.0217020  58.8495910
   6.2362120  81.3777380  57.5119660   4.2738700  78.1673700  70.8135500
   3.7435160  77.6764650  70.1858840   4.9426770  78.5957900  70.2793430
   8.6238920  81.2114760  55.2541620   9.1444580  80.4963780  54.8882770
   9.2707320  81.8500630  55.5542130  13.1716760  82.6343160  70.5776690
  13.5857780  82.7888240  71.4267110  12.2367760  82.7598380  70.7402470
  13.6438930  79.9739320  72.5815840  14.2259700  79.2191640  72.4936320
  13.8200700  80.5046760  71.8047320   4.7611000  75.1336070  70.8932790
   4.6667870  74.5156820  70.1683660   4.1808390  75.8602360  70.6662700
   7.5272440  73.6909310  67.9260180   7.0789740  73.7133570  67.0805730
   6.8937640  73.2928330  68.5230480   7.9331990  82.5863640  68.5472620
   8.3520100  83.4296370  68.3748860   7.0140620  82.7235680  68.3179400
  10.2695890  80.3179820  69.9310460  10.3892100  79.7220960  70.6705300
  11.1289890  80.3549510  69.5111760  12.6083790  80.8717010  68.5072970
  12.0819010  81.3959630  67.9038110  12.9515130  81.5044400  69.1382700
   5.0070180  78.2610380  54.9522680   4.8059240  77.3977740  55.3136020
   4.8362230  78.1743740  54.0144280   7.0364660  76.8601170  71.1886280
   7.6264350  76.5517020  71.8764100   6.2184900  76.3880920  71.3446180
  11.8558090  76.4766980  71.4219300  11.1673610  75.8148520  71.3569290
  12.5764110  76.0305250  71.8667760  12.4858490  73.0718610  57.4809560
  12.7660780  72.2286510  57.8368980  11.7124220  73.3041720  57.9948310
   3.8052980  75.3611000  54.9400560   4.1078880  75.3678430  54.0319710
   4.5447570  75.0108860  55.4368220   7.0237910  74.3045620  55.9256760
   6.6759910  73.6269610  55.3459210   7.2250680  73.8435130  56.7400150
  16.8639210  82.3095340  58.0913470  17.6258120  82.8791990  58.1973160
  16.8793580  81.7422540  58.8621780  17.8699180  83.1645440  62.9355400
  18.2408010  82.3812760  62.5291370  18.5101110  83.8534540  62.7572700
  16.9158380  82.6029710  55.2485990  17.1907220  83.5108590  55.1205210
  16.7269120  82.5392240  56.1847980  13.3133990  75.6274560  56.5439620
  13.7318870  75.4405540  55.7036280  13.0070050  74.7753610  56.8542550
  16.8123720  80.5398700  60.2415420  16.4367320  79.7726630  59.8096710
  16.0826840  80.9221400  60.7290350  16.2023340  79.6870220  69.8754940
  15.9709430  79.4582970  68.9752890  16.4627890  80.6069770  69.8299830
  14.6411410  74.9126650  72.6534640  15.5181590  74.9210050  73.0368640
  14.6532250  74.1757490  72.0426990  16.0874680  78.7656190  63.5422660
  16.6112160  78.2718840  62.9112830  16.6734100  78.9006550  64.2870230
  16.2664400  78.8496060  67.0642210  15.3167110  78.8159600  67.1787200
  16.4477410  79.7596170  66.8291980   1.7683000  73.1537070  55.2143490
   2.4911130  73.6946010  55.5324710   2.0407520  72.8800490  54.3385030
  15.5774650  78.0229540  59.4815070  16.0733770  77.7900410  60.2663950
  15.3790720  77.1841380  59.0652710  17.0061810  76.6590490  62.0152750
  16.8961090  76.5046530  62.9535020  17.7669400  76.1311430  61.7728160
  15.3527530  72.5984620  68.4735750  15.9899750  73.2118760  68.8394940
  15.5002420  72.6345280  67.5284980  17.8952080  74.4898410  55.2558890
  18.8201390  74.3579590  55.0477180  17.8727870  74.5691230  56.2095340
  17.9690570  75.2609070  57.8815600  17.1742070  75.1954190  58.4108510
  18.1733850  76.1959710  57.8700950   8.7232010  73.7510810  71.3810850
   8.6620900  74.3432640  72.1306260   9.6632390  73.6436770  71.2361110
  11.3606570  73.4080870  71.0203140  11.9746980  73.7260160  70.3584220
  11.9056130  72.9229460  71.6399000   1.8827830  72.0875130  71.1342200
   2.4310820  71.9063180  70.3708310   1.9483140  71.2969240  71.6698510
  12.1014610  71.9713010  67.3472430  11.2274450  72.3048120  67.1445360
  11.9925360  71.4986190  68.1724300  13.0086590  74.1783880  68.7314150
  12.6799950  73.3635640  68.3515880  13.9568890  74.1353690  68.6079840
   9.8489430  72.8882850  66.2865340   9.0661220  73.3628350  66.5662100
   9.5552360  71.9837680  66.1778520  14.4010500  73.5905950  64.3314430
  14.8418590  73.5351050  63.4836030  14.1318090  74.5063960  64.4024610
  16.2649070  73.2221190  62.3423250  16.2037470  72.2782410  62.1954270
  17.0441100  73.3301280  62.8876710   7.7343650  75.3069600  61.7981370
   6.9218160  74.9326490  61.4577250   8.2385290  74.5514680  62.1002560
  12.2368630  71.9712050  63.0364440  12.8398000  72.5432260  63.5112960
  11.4961620  72.5351490  62.8138340  15.3803230  72.3733610  58.3104720
  15.5753860  73.2717060  58.5772150  14.5933100  72.1420690  58.8037670
   3.5654990  73.7194380  57.3481030   4.0947750  72.9324180  57.2188980
   4.1983310  74.3985570  57.5816560   5.7592830  73.4569520  60.4026420
   5.1295570  72.7556830  60.5696550   5.2197970  74.2173650  60.1859580
   5.8848390  72.7353500  72.8378910   5.6032660  73.2387100  72.0739730
   6.2668090  71.9375250  72.4721040  12.4863850  72.1507080  73.4159380
  12.3729300  72.4701690  74.3110900  13.3033590  72.5519590  73.1196660
  11.3922000  80.1699550  43.7794120  11.3116050  79.2554160  43.5085830
  10.9786420  80.6666620  43.0733830   9.5240040  81.9478570  45.6603390
   8.7482140  81.4679010  45.9501960  10.1752970  81.2684220  45.4859550
   3.5405870  82.2598380  46.5379150   2.7090750  82.0047090  46.9375660
   4.1486850  82.3309150  47.2737070   8.9649030  84.6235760  45.6673550
   8.8957310  83.6825700  45.5062680   9.7268890  84.7137170  46.2396120
   9.9954200  77.4306140  45.8942480  10.3719020  76.5578020  45.7816150
   9.8973710  77.7664840  45.0032920   4.1259210  75.8031770  41.3559920
   4.2325960  76.7035500  41.6628680   3.2151570  75.7549740  41.0654570
  13.7778320  74.9256580  42.8270820  14.5987940  74.4353150  42.8696300
  13.8112400  75.5154240  43.5802660   5.9666940  78.7718140  45.6885100
   6.4745160  79.2699110  46.3290120   6.4980180  77.9953340  45.5124460
  18.0677870  76.9423330  49.3914450  17.3630040  77.3305040  48.8729560
  18.3335790  77.6373620  49.9935380   4.2503040  73.4116700  49.9548520
   4.2521480  73.9289090  49.1494420   3.4207350  72.9346880  49.9318450
  10.6374130  83.5236010  41.4538420  10.0191400  83.9885460  40.8901140
  11.1497380  84.2163490  41.8707930   5.5005890  83.0511880  48.1322020
   5.1675270  83.6780800  48.7743090   5.6772570  83.5773760  47.3523690
  14.0139800  76.8656960  45.5998360  13.3095370  77.1541850  46.1801470
  14.3751960  77.6757070  45.2397920   3.9318370  75.1226660  47.9618970
   4.2735180  75.9668710  47.6672840   2.9934180  75.2710400  48.0784310
  17.0826720  76.3111750  45.9907570  16.1351630  76.3450730  46.1223000
  17.4076710  77.1250700  46.3756930   7.6146260  72.6108930  44.2863560
   7.9221240  72.0555820  43.5699060   6.6846960  72.7453390  44.1036550
  12.5646760  83.2306060  47.9053630  12.9815550  83.0166170  47.0707090
  13.2886580  83.4878850  48.4762250  10.0027020  80.6757760  41.0223680
   9.0756300  80.6095140  41.2512150  10.1551840  81.6137890  40.9078920
   9.9896100  76.9474760  38.0190840   9.0499770  77.1088720  38.1043300
  10.3079360  77.6660440  37.4726830  16.5108860  81.6293280  47.9969870
  15.6827490  81.6986370  47.5220000  17.1059340  82.2147590  47.5285700
  14.0324310  82.2378060  41.5258930  13.4136730  81.8997610  40.8785230
  14.0148760  81.5937820  42.2338120  13.4750870  78.4162600  48.9424740
  13.0622050  79.2416310  49.1964730  12.7426820  77.8307640  48.7501100
   5.6083660  81.2022500  43.8043410   5.2040660  80.4899750  43.3089310
   5.6946780  80.8575740  44.6931450   6.0765360  84.8890060  45.9682620
   5.7793650  84.2835530  45.2890400   7.0265180  84.9267370  45.8571980
   4.3212280  77.9765710  47.5842450   4.8726870  78.0861050  46.8095700
   4.8355790  78.3503310  48.2997680   5.1683790  84.6271750  52.6190420
   4.2712320  84.8511720  52.8663820   5.1936660  84.7506690  51.6701820
  12.2089010  81.4764870  38.5331680  12.6482290  80.6387300  38.3869500
  12.9217430  82.1094270  38.6195820   3.9955010  81.4985070  51.1947790
   3.8562780  82.3707870  51.5635190   3.1136370  81.1557880  51.0495730
  15.7906150  72.7307680  36.8472720  15.4778810  72.8234510  37.7471790
  16.5518620  73.3088710  36.7970150   2.3088290  80.0967480  41.3050060
   2.1885890  80.8229570  40.6931330   1.9989180  79.3270390  40.8277970
  17.0007440  77.4679180  52.8246860  16.3851710  77.9758850  52.2962320
  16.6803860  76.5677510  52.7672800   4.7751950  73.4402550  44.6873730
   4.3320100  74.2212090  44.3558250   5.3336940  73.7632440  45.3944670
   9.0621760  76.3071070  50.2909050   8.6001130  76.5154090  51.1028990
   8.6599870  75.4930420  49.9879720  14.0626270  77.5280020  51.4205710
  13.2119860  77.2285770  51.7414780  13.9028060  77.7722030  50.5089530
  11.1575980  79.0281770  53.5204500  11.4829390  78.1945520  53.1806730
  11.9456310  79.5510290  53.6682830   7.8910770  73.0613250  39.5679560
   7.2664950  73.0573120  40.2932870   7.8040890  72.1944210  39.1715530
   6.8127850  73.9849880  46.5463330   7.1100180  74.8912710  46.4655350
   7.3613410  73.4968660  45.9322900   4.5666170  78.5636120  42.4154980
   4.3407090  78.3473290  43.3201600   3.7858700  78.9964580  42.0700950
  11.7963930  78.5699490  41.0145630  11.1972820  79.2935290  40.8309250
  12.3443540  78.5076270  40.2322080   7.0065380  79.4621700  53.0815250
   6.9108980  78.5216430  52.9315650   7.8497360  79.6836770  52.6863320
  10.4028800  77.2063030  43.0448910  10.7958370  77.5235230  42.2317600
  10.7645650  76.3274910  43.1593430   8.7120970  75.9570340  54.3045770
   8.0219290  75.7642540  54.9391860   9.4553270  76.2404980  54.8370070
  10.9883940  79.7968780  47.1399690  10.2565060  80.3055590  47.4889790
  10.5908280  78.9798760  46.8388470   7.4261330  76.4722980  45.5452180
   7.4297390  76.0312930  44.6956720   8.3212450  76.7940310  45.6524000
   3.2763710  76.3549470  44.5046390   2.9363760  76.8324700  45.2613440
   2.5141030  75.9014590  44.1447490   7.4881480  77.4735060  38.5358940
   7.6094300  77.4321540  39.4844760   7.1029990  78.3359210  38.3805670
  11.4509850  75.2502460  46.5522630  11.4682590  75.7011110  47.3964480
  11.2025430  74.3508100  46.7656070   6.5002980  79.7836200  37.9342240
   5.9319880  79.3354450  37.3078150   7.2091980  80.1428980  37.4007390
  14.8780600  72.6634640  52.3909010  15.2026370  71.9324300  52.9166990
  14.9137110  72.3448280  51.4890000   7.7269300  80.5324760  47.2917590
   8.0939430  80.0583330  48.0378930   7.5374360  81.4066330  47.6325930
   5.5168670  79.5733400  49.6101800   5.2125740  80.4525380  49.8352160
   6.4715130  79.6333190  49.6459240   4.0450460  83.7794390  40.2068650
   3.2712720  83.2392010  40.0467370   4.7745090  83.2601000  39.8686410
  14.8038440  82.7759750  45.9995040  15.5237560  83.2715040  45.6091150
  14.6020260  82.0977640  45.3548910  10.2648380  74.1697710  40.1424430
   9.4512990  73.6710880  40.0669740  10.0710330  75.0095960  39.7260780
  10.1857240  82.8468810  51.8864040  10.1194550  81.9264480  51.6321630
   9.5562380  82.9444250  52.6008680  12.9796770  78.5417360  38.4386590
  13.8676390  78.8534590  38.2637930  12.9501860  77.6689610  38.0467170
   4.0887860  83.4474770  43.8447460   4.6066530  82.6443030  43.7904350
   3.6371880  83.3853910  44.6864290   4.7745520  80.8720380  53.6412710
   4.4745660  81.0177560  52.7440530   5.5456760  80.3125670  53.5486100
  15.2511040  79.8529200  37.9066450  15.1674760  80.2843420  37.0562890
  15.9705230  80.3127550  38.3393270  16.3285180  82.3096720  50.9836420
  15.6033370  82.9025500  50.7865810  16.8560640  82.3020260  50.1849790
  11.8584770  84.0356890  44.4820270  12.2108590  83.4385020  43.8221640
  10.9747100  83.7101120  44.6528520   7.2475260  81.8000610  41.5016040
   7.7038040  82.6105860  41.7276230   6.8963470  81.4823750  42.3334530
   3.1487040  72.1438260  41.9738560   3.0201670  72.1356160  42.9223480
   2.3249060  72.4821350  41.6229570  14.2511920  83.5159860  38.8339090
  13.9633620  83.9772550  39.6216970  15.0464090  83.0557630  39.1023310
  11.6419750  76.3951690  49.1846710  12.0100570  75.5746900  49.5126280
  10.7817950  76.4553580  49.6002360  15.0081780  75.3508630  39.9934270
  14.3794940  75.4554300  39.2792500  14.5133700  75.5705410  40.7828150
   6.9765810  77.6294580  41.4092150   6.2681960  78.0980920  41.8505760
   7.2610290  76.9716590  42.0437340   8.6021740  79.0491280  49.4084680
   9.1006990  79.5237100  50.0736530   8.7444690  78.1254800  49.6154710
  11.0081240  74.3545240  42.8487940  10.8849020  74.3731370  41.8997450
  11.9565800  74.4024180  42.9686340   5.1800830  75.9379660  38.7842860
   6.0291360  76.3749810  38.7183050   4.8132100  76.2499920  39.6114920
  15.8088600  75.2659240  50.2513070  15.3062200  76.0064640  50.5906880
  16.6245260  75.6543240  49.9349860  14.1010610  80.5092420  43.6974430
  13.1600750  80.5242650  43.8722120  14.4154680  79.7228380  44.1434730
   4.0792250  82.1912020  37.2578390   4.8455520  82.0793380  37.8203820
   4.1566940  81.4949990  36.6055160   2.7739010  79.6237090  37.9411280
   2.8542600  78.6764600  38.0528680   3.6658760  79.9543970  38.0471940
  11.4176630  85.0658420  54.1806810  10.8114790  85.0890020  53.4402560
  11.1130740  84.3341460  54.7174060   7.2033430  84.1666200  36.7313740
   7.0984070  83.5518550  37.4575120   7.0357650  83.6432090  35.9476750
   7.3547750  82.8523000  52.7102970   6.5893420  83.4208000  52.6257640
   7.5363710  82.5599210  51.8171200  10.4436160  83.2286230  37.3355730
   9.8946260  83.6755530  37.9798470  11.0655420  82.7235480  37.8593400
  14.4971100  84.5828330  53.2677990  15.2380570  84.9204090  52.7645450
  13.7343780  84.7520390  52.7147760   2.3332890  79.5881600  54.0717520
   2.3738230  79.2895470  54.9802750   3.1878390  79.9889210  53.9125040
   6.1111280  82.1877150  39.2321030   6.5327700  82.0217020  40.0752420
   6.2362120  81.3777380  38.7376170   4.2738700  78.1673700  52.0392010
   3.7435160  77.6764650  51.4115350   4.9426770  78.5957900  51.5049940
   8.6238920  81.2114760  36.4798130   9.1444580  80.4963780  36.1139280
   9.2707320  81.8500630  36.7798640  13.1716760  82.6343160  51.8033200
  13.5857780  82.7888240  52.6523620  12.2367760  82.7598380  51.9658980
  13.6438930  79.9739320  53.8072350  14.2259700  79.2191640  53.7192830
  13.8200700  80.5046760  53.0303830   4.7611000  75.1336070  52.1189300
   4.6667870  74.5156820  51.3940170   4.1808390  75.8602360  51.8919210
   7.5272440  73.6909310  49.1516690   7.0789740  73.7133570  48.3062240
   6.8937640  73.2928330  49.7486990   7.9331990  82.5863640  49.7729130
   8.3520100  83.4296370  49.6005370   7.0140620  82.7235680  49.5435910
  10.2695890  80.3179820  51.1566970  10.3892100  79.7220960  51.8961810
  11.1289890  80.3549510  50.7368270  12.6083790  80.8717010  49.7329480
  12.0819010  81.3959630  49.1294620  12.9515130  81.5044400  50.3639210
   5.0070180  78.2610380  36.1779190   4.8059240  77.3977740  36.5392530
   4.8362230  78.1743740  35.2400790   7.0364660  76.8601170  52.4142790
   7.6264350  76.5517020  53.1020610   6.2184900  76.3880920  52.5702690
  11.8558090  76.4766980  52.6475810  11.1673610  75.8148520  52.5825800
  12.5764110  76.0305250  53.0924270  12.4858490  73.0718610  38.7066070
  12.7660780  72.2286510  39.0625490  11.7124220  73.3041720  39.2204820
   3.8052980  75.3611000  36.1657070   4.1078880  75.3678430  35.2576220
   4.5447570  75.0108860  36.6624730   7.0237910  74.3045620  37.1513270
   6.6759910  73.6269610  36.5715720   7.2250680  73.8435130  37.9656660
  16.8639210  82.3095340  39.3169980  17.6258120  82.8791990  39.4229670
  16.8793580  81.7422540  40.0878290  17.8699180  83.1645440  44.1611910
  18.2408010  82.3812760  43.7547880  18.5101110  83.8534540  43.9829210
  16.9158380  82.6029710  36.4742500  17.1907220  83.5108590  36.3461720
  16.7269120  82.5392240  37.4104490  13.3133990  75.6274560  37.7696130
  13.7318870  75.4405540  36.9292790  13.0070050  74.7753610  38.0799060
  16.8123720  80.5398700  41.4671930  16.4367320  79.7726630  41.0353220
  16.0826840  80.9221400  41.9546860  16.2023340  79.6870220  51.1011450
  15.9709430  79.4582970  50.2009400  16.4627890  80.6069770  51.0556340
  14.6411410  74.9126650  53.8791150  15.5181590  74.9210050  54.2625150
  14.6532250  74.1757490  53.2683500  16.0874680  78.7656190  44.7679170
  16.6112160  78.2718840  44.1369340  16.6734100  78.9006550  45.5126740
  16.2664400  78.8496060  48.2898720  15.3167110  78.8159600  48.4043710
  16.4477410  79.7596170  48.0548490   1.7683000  73.1537070  36.4400000
   2.4911130  73.6946010  36.7581220   2.0407520  72.8800490  35.5641540
  15.5774650  78.0229540  40.7071580  16.0733770  77.7900410  41.4920460
  15.3790720  77.1841380  40.2909220  17.0061810  76.6590490  43.2409260
  16.8961090  76.5046530  44.1791530  17.7669400  76.1311430  42.9984670
  15.3527530  72.5984620  49.6992260  15.9899750  73.2118760  50.0651450
  15.5002420  72.6345280  48.7541490  17.8952080  74.4898410  36.4815400
  18.8201390  74.3579590  36.2733690  17.8727870  74.5691230  37.4351850
  17.9690570  75.2609070  39.1072110  17.1742070  75.1954190  39.6365020
  18.1733850  76.1959710  39.0957460   8.7232010  73.7510810  52.6067360
   8.6620900  74.3432640  53.3562770   9.6632390  73.6436770  52.4617620
  11.3606570  73.4080870  52.2459650  11.9746980  73.7260160  51.5840730
  11.9056130  72.9229460  52.8655510   1.8827830  72.0875130  52.3598710
   2.4310820  71.9063180  51.5964820   1.9483140  71.2969240  52.8955020
  12.1014610  71.9713010  48.5728940  11.2274450  72.3048120  48.3701870
  11.9925360  71.4986190  49.3980810  13.0086590  74.1783880  49.9570660
  12.6799950  73.3635640  49.5772390  13.9568890  74.1353690  49.8336350
   9.8489430  72.8882850  47.5121850   9.0661220  73.3628350  47.7918610
   9.5552360  71.9837680  47.4035030  14.4010500  73.5905950  45.5570940
  14.8418590  73.5351050  44.7092540  14.1318090  74.5063960  45.6281120
  16.2649070  73.2221190  43.5679760  16.2037470  72.2782410  43.4210780
  17.0441100  73.3301280  44.1133220   7.7343650  75.3069600  43.0237880
   6.9218160  74.9326490  42.6833760   8.2385290  74.5514680  43.3259070
  12.2368630  71.9712050  44.2620950  12.8398000  72.5432260  44.7369470
  11.4961620  72.5351490  44.0394850  15.3803230  72.3733610  39.5361230
  15.5753860  73.2717060  39.8028660  14.5933100  72.1420690  40.0294180
   3.5654990  73.7194380  38.5737540   4.0947750  72.9324180  38.4445490
   4.1983310  74.3985570  38.8073070   5.7592830  73.4569520  41.6282930
   5.1295570  72.7556830  41.7953060   5.2197970  74.2173650  41.4116090
   5.8848390  72.7353500  54.0635420   5.6032660  73.2387100  53.2996240
   6.2668090  71.9375250  53.6977550  12.4863850  72.1507080  54.6415890
  12.3729300  72.4701690  55.5367410  13.3033590  72.5519590  54.3453170
  11.3922000  80.1699550  25.0050630  11.3116050  79.2554160  24.7342340
  10.9786420  80.6666620  24.2990340   9.5240040  81.9478570  26.8859900
   8.7482140  81.4679010  27.1758470  10.1752970  81.2684220  26.7116060
   3.5405870  82.2598380  27.7635660   2.7090750  82.0047090  28.1632170
   4.1486850  82.3309150  28.4993580   8.9649030  84.6235760  26.8930060
   8.8957310  83.6825700  26.7319190   9.7268890  84.7137170  27.4652630
   9.9954200  77.4306140  27.1198990  10.3719020  76.5578020  27.0072660
   9.8973710  77.7664840  26.2289430   4.1259210  75.8031770  22.5816430
   4.2325960  76.7035500  22.8885190   3.2151570  75.7549740  22.2911080
  13.7778320  74.9256580  24.0527330  14.5987940  74.4353150  24.0952810
  13.8112400  75.5154240  24.8059170   5.9666940  78.7718140  26.9141610
   6.4745160  79.2699110  27.5546630   6.4980180  77.9953340  26.7380970
  18.0677870  76.9423330  30.6170960  17.3630040  77.3305040  30.0986070
  18.3335790  77.6373620  31.2191890   4.2503040  73.4116700  31.1805030
   4.2521480  73.9289090  30.3750930   3.4207350  72.9346880  31.1574960
  10.6374130  83.5236010  22.6794930  10.0191400  83.9885460  22.1157650
  11.1497380  84.2163490  23.0964440   5.5005890  83.0511880  29.3578530
   5.1675270  83.6780800  29.9999600   5.6772570  83.5773760  28.5780200
  14.0139800  76.8656960  26.8254870  13.3095370  77.1541850  27.4057980
  14.3751960  77.6757070  26.4654430   3.9318370  75.1226660  29.1875480
   4.2735180  75.9668710  28.8929350   2.9934180  75.2710400  29.3040820
  17.0826720  76.3111750  27.2164080  16.1351630  76.3450730  27.3479510
  17.4076710  77.1250700  27.6013440   7.6146260  72.6108930  25.5120070
   7.9221240  72.0555820  24.7955570   6.6846960  72.7453390  25.3293060
  12.5646760  83.2306060  29.1310140  12.9815550  83.0166170  28.2963600
  13.2886580  83.4878850  29.7018760  10.0027020  80.6757760  22.2480190
   9.0756300  80.6095140  22.4768660  10.1551840  81.6137890  22.1335430
   9.9896100  76.9474760  19.2447350   9.0499770  77.1088720  19.3299810
  10.3079360  77.6660440  18.6983340  16.5108860  81.6293280  29.2226380
  15.6827490  81.6986370  28.7476510  17.1059340  82.2147590  28.7542210
  14.0324310  82.2378060  22.7515440  13.4136730  81.8997610  22.1041740
  14.0148760  81.5937820  23.4594630  13.4750870  78.4162600  30.1681250
  13.0622050  79.2416310  30.4221240  12.7426820  77.8307640  29.9757610
   5.6083660  81.2022500  25.0299920   5.2040660  80.4899750  24.5345820
   5.6946780  80.8575740  25.9187960   6.0765360  84.8890060  27.1939130
   5.7793650  84.2835530  26.5146910   7.0265180  84.9267370  27.0828490
   4.3212280  77.9765710  28.8098960   4.8726870  78.0861050  28.0352210
   4.8355790  78.3503310  29.5254190   5.1683790  84.6271750  33.8446930
   4.2712320  84.8511720  34.0920330   5.1936660  84.7506690  32.8958330
  12.2089010  81.4764870  19.7588190  12.6482290  80.6387300  19.6126010
  12.9217430  82.1094270  19.8452330   3.9955010  81.4985070  32.4204300
   3.8562780  82.3707870  32.7891700   3.1136370  81.1557880  32.2752240
  15.7906150  72.7307680  18.0729230  15.4778810  72.8234510  18.9728300
  16.5518620  73.3088710  18.0226660   2.3088290  80.0967480  22.5306570
   2.1885890  80.8229570  21.9187840   1.9989180  79.3270390  22.0534480
  17.0007440  77.4679180  34.0503370  16.3851710  77.9758850  33.5218830
  16.6803860  76.5677510  33.9929310   4.7751950  73.4402550  25.9130240
   4.3320100  74.2212090  25.5814760   5.3336940  73.7632440  26.6201180
   9.0621760  76.3071070  31.5165560   8.6001130  76.5154090  32.3285500
   8.6599870  75.4930420  31.2136230  14.0626270  77.5280020  32.6462220
  13.2119860  77.2285770  32.9671290  13.9028060  77.7722030  31.7346040
  11.1575980  79.0281770  34.7461010  11.4829390  78.1945520  34.4063240
  11.9456310  79.5510290  34.8939340   7.8910770  73.0613250  20.7936070
   7.2664950  73.0573120  21.5189380   7.8040890  72.1944210  20.3972040
   6.8127850  73.9849880  27.7719840   7.1100180  74.8912710  27.6911860
   7.3613410  73.4968660  27.1579410   4.5666170  78.5636120  23.6411490
   4.3407090  78.3473290  24.5458110   3.7858700  78.9964580  23.2957460
  11.7963930  78.5699490  22.2402140  11.1972820  79.2935290  22.0565760
  12.3443540  78.5076270  21.4578590   7.0065380  79.4621700  34.3071760
   6.9108980  78.5216430  34.1572160   7.8497360  79.6836770  33.9119830
  10.4028800  77.2063030  24.2705420  10.7958370  77.5235230  23.4574110
  10.7645650  76.3274910  24.3849940   8.7120970  75.9570340  35.5302280
   8.0219290  75.7642540  36.1648370   9.4553270  76.2404980  36.0626580
  10.9883940  79.7968780  28.3656200  10.2565060  80.3055590  28.7146300
  10.5908280  78.9798760  28.0644980   7.4261330  76.4722980  26.7708690
   7.4297390  76.0312930  25.9213230   8.3212450  76.7940310  26.8780510
   3.2763710  76.3549470  25.7302900   2.9363760  76.8324700  26.4869950
   2.5141030  75.9014590  25.3704000   7.4881480  77.4735060  19.7615450
   7.6094300  77.4321540  20.7101270   7.1029990  78.3359210  19.6062180
  11.4509850  75.2502460  27.7779140  11.4682590  75.7011110  28.6220990
  11.2025430  74.3508100  27.9912580   6.5002980  79.7836200  19.1598750
   5.9319880  79.3354450  18.5334660   7.2091980  80.1428980  18.6263900
  14.8780600  72.6634640  33.6165520  15.2026370  71.9324300  34.1423500
  14.9137110  72.3448280  32.7146510   7.7269300  80.5324760  28.5174100
   8.0939430  80.0583330  29.2635440   7.5374360  81.4066330  28.8582440
   5.5168670  79.5733400  30.8358310   5.2125740  80.4525380  31.0608670
   6.4715130  79.6333190  30.8715750   4.0450460  83.7794390  21.4325160
   3.2712720  83.2392010  21.2723880   4.7745090  83.2601000  21.0942920
  14.8038440  82.7759750  27.2251550  15.5237560  83.2715040  26.8347660
  14.6020260  82.0977640  26.5805420  10.2648380  74.1697710  21.3680940
   9.4512990  73.6710880  21.2926250  10.0710330  75.0095960  20.9517290
  10.1857240  82.8468810  33.1120550  10.1194550  81.9264480  32.8578140
   9.5562380  82.9444250  33.8265190  12.9796770  78.5417360  19.6643100
  13.8676390  78.8534590  19.4894440  12.9501860  77.6689610  19.2723680
   4.0887860  83.4474770  25.0703970   4.6066530  82.6443030  25.0160860
   3.6371880  83.3853910  25.9120800   4.7745520  80.8720380  34.8669220
   4.4745660  81.0177560  33.9697040   5.5456760  80.3125670  34.7742610
  15.2511040  79.8529200  19.1322960  15.1674760  80.2843420  18.2819400
  15.9705230  80.3127550  19.5649780  16.3285180  82.3096720  32.2092930
  15.6033370  82.9025500  32.0122320  16.8560640  82.3020260  31.4106300
  11.8584770  84.0356890  25.7076780  12.2108590  83.4385020  25.0478150
  10.9747100  83.7101120  25.8785030   7.2475260  81.8000610  22.7272550
   7.7038040  82.6105860  22.9532740   6.8963470  81.4823750  23.5591040
   3.1487040  72.1438260  23.1995070   3.0201670  72.1356160  24.1479990
   2.3249060  72.4821350  22.8486080  14.2511920  83.5159860  20.0595600
  13.9633620  83.9772550  20.8473480  15.0464090  83.0557630  20.3279820
  11.6419750  76.3951690  30.4103220  12.0100570  75.5746900  30.7382790
  10.7817950  76.4553580  30.8258870  15.0081780  75.3508630  21.2190780
  14.3794940  75.4554300  20.5049010  14.5133700  75.5705410  22.0084660
   6.9765810  77.6294580  22.6348660   6.2681960  78.0980920  23.0762270
   7.2610290  76.9716590  23.2693850   8.6021740  79.0491280  30.6341190
   9.1006990  79.5237100  31.2993040   8.7444690  78.1254800  30.8411220
  11.0081240  74.3545240  24.0744450  10.8849020  74.3731370  23.1253960
  11.9565800  74.4024180  24.1942850   5.1800830  75.9379660  20.0099370
   6.0291360  76.3749810  19.9439560   4.8132100  76.2499920  20.8371430
  15.8088600  75.2659240  31.4769580  15.3062200  76.0064640  31.8163390
  16.6245260  75.6543240  31.1606370  14.1010610  80.5092420  24.9230940
  13.1600750  80.5242650  25.0978630  14.4154680  79.7228380  25.3691240
   4.0792250  82.1912020  18.4834900   4.8455520  82.0793380  19.0460330
   4.1566940  81.4949990  17.8311670   2.7739010  79.6237090  19.1667790
   2.8542600  78.6764600  19.2785190   3.6658760  79.9543970  19.2728450
  11.4176630  85.0658420  35.4063320  10.8114790  85.0890020  34.6659070
  11.1130740  84.3341460  35.9430570   7.2033430  84.1666200  17.9570250
   7.0984070  83.5518550  18.6831630   7.0357650  83.6432090  17.1733260
   7.3547750  82.8523000  33.9359480   6.5893420  83.4208000  33.8514150
   7.5363710  82.5599210  33.0427710  10.4436160  83.2286230  18.5612240
   9.8946260  83.6755530  19.2054980  11.0655420  82.7235480  19.0849910
  14.4971100  84.5828330  34.4934500  15.2380570  84.9204090  33.9901960
  13.7343780  84.7520390  33.9404270   2.3332890  79.5881600  35.2974030
   2.3738230  79.2895470  36.2059260   3.1878390  79.9889210  35.1381550
   6.1111280  82.1877150  20.4577540   6.5327700  82.0217020  21.3008930
   6.2362120  81.3777380  19.9632680   4.2738700  78.1673700  33.2648520
   3.7435160  77.6764650  32.6371860   4.9426770  78.5957900  32.7306450
   8.6238920  81.2114760  17.7054640   9.1444580  80.4963780  17.3395790
   9.2707320  81.8500630  18.0055150  13.1716760  82.6343160  33.0289710
  13.5857780  82.7888240  33.8780130  12.2367760  82.7598380  33.1915490
  13.6438930  79.9739320  35.0328860  14.2259700  79.2191640  34.9449340
  13.8200700  80.5046760  34.2560340   4.7611000  75.1336070  33.3445810
   4.6667870  74.5156820  32.6196680   4.1808390  75.8602360  33.1175720
   7.5272440  73.6909310  30.3773200   7.0789740  73.7133570  29.5318750
   6.8937640  73.2928330  30.9743500   7.9331990  82.5863640  30.9985640
   8.3520100  83.4296370  30.8261880   7.0140620  82.7235680  30.7692420
  10.2695890  80.3179820  32.3823480  10.3892100  79.7220960  33.1218320
  11.1289890  80.3549510  31.9624780  12.6083790  80.8717010  30.9585990
  12.0819010  81.3959630  30.3551130  12.9515130  81.5044400  31.5895720
   5.0070180  78.2610380  17.4035700   4.8059240  77.3977740  17.7649040
   4.8362230  78.1743740  16.4657300   7.0364660  76.8601170  33.6399300
   7.6264350  76.5517020  34.3277120   6.2184900  76.3880920  33.7959200
  11.8558090  76.4766980  33.8732320  11.1673610  75.8148520  33.8082310
  12.5764110  76.0305250  34.3180780  12.4858490  73.0718610  19.9322580
  12.7660780  72.2286510  20.2882000  11.7124220  73.3041720  20.4461330
   3.8052980  75.3611000  17.3913580   4.1078880  75.3678430  16.4832730
   4.5447570  75.0108860  17.8881240   7.0237910  74.3045620  18.3769780
   6.6759910  73.6269610  17.7972230   7.2250680  73.8435130  19.1913170
  16.8639210  82.3095340  20.5426490  17.6258120  82.8791990  20.6486180
  16.8793580  81.7422540  21.3134800  17.8699180  83.1645440  25.3868420
  18.2408010  82.3812760  24.9804390  18.5101110  83.8534540  25.2085720
  16.9158380  82.6029710  17.6999010  17.1907220  83.5108590  17.5718230
  16.7269120  82.5392240  18.6361000  13.3133990  75.6274560  18.9952640
  13.7318870  75.4405540  18.1549300  13.0070050  74.7753610  19.3055570
  16.8123720  80.5398700  22.6928440  16.4367320  79.7726630  22.2609730
  16.0826840  80.9221400  23.1803370  16.2023340  79.6870220  32.3267960
  15.9709430  79.4582970  31.4265910  16.4627890  80.6069770  32.2812850
  14.6411410  74.9126650  35.1047660  15.5181590  74.9210050  35.4881660
  14.6532250  74.1757490  34.4940010  16.0874680  78.7656190  25.9935680
  16.6112160  78.2718840  25.3625850  16.6734100  78.9006550  26.7383250
  16.2664400  78.8496060  29.5155230  15.3167110  78.8159600  29.6300220
  16.4477410  79.7596170  29.2805000   1.7683000  73.1537070  17.6656510
   2.4911130  73.6946010  17.9837730   2.0407520  72.8800490  16.7898050
  15.5774650  78.0229540  21.9328090  16.0733770  77.7900410  22.7176970
  15.3790720  77.1841380  21.5165730  17.0061810  76.6590490  24.4665770
  16.8961090  76.5046530  25.4048040  17.7669400  76.1311430  24.2241180
  15.3527530  72.5984620  30.9248770  15.9899750  73.2118760  31.2907960
  15.5002420  72.6345280  29.9798000  17.8952080  74.4898410  17.7071910
  18.8201390  74.3579590  17.4990200  17.8727870  74.5691230  18.6608360
  17.9690570  75.2609070  20.3328620  17.1742070  75.1954190  20.8621530
  18.1733850  76.1959710  20.3213970   8.7232010  73.7510810  33.8323870
   8.6620900  74.3432640  34.5819280   9.6632390  73.6436770  33.6874130
  11.3606570  73.4080870  33.4716160  11.9746980  73.7260160  32.8097240
  11.9056130  72.9229460  34.0912020   1.8827830  72.0875130  33.5855220
   2.4310820  71.9063180  32.8221330   1.9483140  71.2969240  34.1211530
  12.1014610  71.9713010  29.7985450  11.2274450  72.3048120  29.5958380
  11.9925360  71.4986190  30.6237320  13.0086590  74.1783880  31.1827170
  12.6799950  73.3635640  30.8028900  13.9568890  74.1353690  31.0592860
   9.8489430  72.8882850  28.7378360   9.0661220  73.3628350  29.0175120
   9.5552360  71.9837680  28.6291540  14.4010500  73.5905950  26.7827450
  14.8418590  73.5351050  25.9349050  14.1318090  74.5063960  26.8537630
  16.2649070  73.2221190  24.7936270  16.2037470  72.2782410  24.6467290
  17.0441100  73.3301280  25.3389730   7.7343650  75.3069600  24.2494390
   6.9218160  74.9326490  23.9090270   8.2385290  74.5514680  24.5515580
  12.2368630  71.9712050  25.4877460  12.8398000  72.5432260  25.9625980
  11.4961620  72.5351490  25.2651360  15.3803230  72.3733610  20.7617740
  15.5753860  73.2717060  21.0285170  14.5933100  72.1420690  21.2550690
   3.5654990  73.7194380  19.7994050   4.0947750  72.9324180  19.6702000
   4.1983310  74.3985570  20.0329580   5.7592830  73.4569520  22.8539440
   5.1295570  72.7556830  23.0209570   5.2197970  74.2173650  22.6372600
   5.8848390  72.7353500  35.2891930   5.6032660  73.2387100  34.5252750
   6.2668090  71.9375250  34.9234060  12.4863850  72.1507080  35.8672400
  12.3729300  72.4701690  36.7623920  13.3033590  72.5519590  35.5709680
  11.3922000  80.1699550   6.2307140  11.3116050  79.2554160   5.9598850
  10.9786420  80.6666620   5.5246850   9.5240040  81.9478570   8.1116410
   8.7482140  81.4679010   8.4014980  10.1752970  81.2684220   7.9372570
   3.5405870  82.2598380   8.9892170   2.7090750  82.0047090   9.3888680
   4.1486850  82.3309150   9.7250090   8.9649030  84.6235760   8.1186570
   8.8957310  83.6825700   7.9575700   9.7268890  84.7137170   8.6909140
   9.9954200  77.4306140   8.3455500  10.3719020  76.5578020   8.2329170
   9.8973710  77.7664840   7.4545940   4.1259210  75.8031770   3.8072940
   4.2325960  76.7035500   4.1141700   3.2151570  75.7549740   3.5167590
  13.7778320  74.9256580   5.2783840  14.5987940  74.4353150   5.3209320
  13.8112400  75.5154240   6.0315680   5.9666940  78.7718140   8.1398120
   6.4745160  79.2699110   8.7803140   6.4980180  77.9953340   7.9637480
  18.0677870  76.9423330  11.8427470  17.3630040  77.3305040  11.3242580
  18.3335790  77.6373620  12.4448400   4.2503040  73.4116700  12.4061540
   4.2521480  73.9289090  11.6007440   3.4207350  72.9346880  12.3831470
  10.6374130  83.5236010   3.9051440  10.0191400  83.9885460   3.3414160
  11.1497380  84.2163490   4.3220950   5.5005890  83.0511880  10.5835040
   5.1675270  83.6780800  11.2256110   5.6772570  83.5773760   9.8036710
  14.0139800  76.8656960   8.0511380  13.3095370  77.1541850   8.6314490
  14.3751960  77.6757070   7.6910940   3.9318370  75.1226660  10.4131990
   4.2735180  75.9668710  10.1185860   2.9934180  75.2710400  10.5297330
  17.0826720  76.3111750   8.4420590  16.1351630  76.3450730   8.5736020
  17.4076710  77.1250700   8.8269950   7.6146260  72.6108930   6.7376580
   7.9221240  72.0555820   6.0212080   6.6846960  72.7453390   6.5549570
  12.5646760  83.2306060  10.3566650  12.9815550  83.0166170   9.5220110
  13.2886580  83.4878850  10.9275270  10.0027020  80.6757760   3.4736700
   9.0756300  80.6095140   3.7025170  10.1551840  81.6137890   3.3591940
  16.5108860  81.6293280  10.4482890  15.6827490  81.6986370   9.9733020
  17.1059340  82.2147590   9.9798720  14.0324310  82.2378060   3.9771950
  13.4136730  81.8997610   3.3298250  14.0148760  81.5937820   4.6851140
  13.4750870  78.4162600  11.3937760  13.0622050  79.2416310  11.6477750
  12.7426820  77.8307640  11.2014120   5.6083660  81.2022500   6.2556430
   5.2040660  80.4899750   5.7602330   5.6946780  80.8575740   7.1444470
   6.0765360  84.8890060   8.4195640   5.7793650  84.2835530   7.7403420
   7.0265180  84.9267370   8.3085000   4.3212280  77.9765710  10.0355470
   4.8726870  78.0861050   9.2608720   4.8355790  78.3503310  10.7510700
   5.1683790  84.6271750  15.0703440   4.2712320  84.8511720  15.3176840
   5.1936660  84.7506690  14.1214840   3.9955010  81.4985070  13.6460810
   3.8562780  82.3707870  14.0148210   3.1136370  81.1557880  13.5008750
   2.3088290  80.0967480   3.7563080   2.1885890  80.8229570   3.1444350
   1.9989180  79.3270390   3.2790990  17.0007440  77.4679180  15.2759880
  16.3851710  77.9758850  14.7475340  16.6803860  76.5677510  15.2185820
   4.7751950  73.4402550   7.1386750   4.3320100  74.2212090   6.8071270
   5.3336940  73.7632440   7.8457690   9.0621760  76.3071070  12.7422070
   8.6001130  76.5154090  13.5542010   8.6599870  75.4930420  12.4392740
  14.0626270  77.5280020  13.8718730  13.2119860  77.2285770  14.1927800
  13.9028060  77.7722030  12.9602550  11.1575980  79.0281770  15.9717520
  11.4829390  78.1945520  15.6319750  11.9456310  79.5510290  16.1195850
   6.8127850  73.9849880   8.9976350   7.1100180  74.8912710   8.9168370
   7.3613410  73.4968660   8.3835920   4.5666170  78.5636120   4.8668000
   4.3407090  78.3473290   5.7714620   3.7858700  78.9964580   4.5213970
  11.7963930  78.5699490   3.4658650  11.1972820  79.2935290   3.2822270
  12.3443540  78.5076270   2.6835100   7.0065380  79.4621700  15.5328270
   6.9108980  78.5216430  15.3828670   7.8497360  79.6836770  15.1376340
  10.4028800  77.2063030   5.4961930  10.7958370  77.5235230   4.6830620
  10.7645650  76.3274910   5.6106450   8.7120970  75.9570340  16.7558790
   8.0219290  75.7642540  17.3904880   9.4553270  76.2404980  17.2883090
  10.9883940  79.7968780   9.5912710  10.2565060  80.3055590   9.9402810
  10.5908280  78.9798760   9.2901490   7.4261330  76.4722980   7.9965200
   7.4297390  76.0312930   7.1469740   8.3212450  76.7940310   8.1037020
   3.2763710  76.3549470   6.9559410   2.9363760  76.8324700   7.7126460
   2.5141030  75.9014590   6.5960510  11.4509850  75.2502460   9.0035650
  11.4682590  75.7011110   9.8477500  11.2025430  74.3508100   9.2169090
  14.8780600  72.6634640  14.8422030  15.2026370  71.9324300  15.3680010
  14.9137110  72.3448280  13.9403020   7.7269300  80.5324760   9.7430610
   8.0939430  80.0583330  10.4891950   7.5374360  81.4066330  10.0838950
   5.5168670  79.5733400  12.0614820   5.2125740  80.4525380  12.2865180
   6.4715130  79.6333190  12.0972260   4.0450460  83.7794390   2.6581670
   3.2712720  83.2392010   2.4980390   4.7745090  83.2601000   2.3199430
  14.8038440  82.7759750   8.4508060  15.5237560  83.2715040   8.0604170
  14.6020260  82.0977640   7.8061930  10.2648380  74.1697710   2.5937450
   9.4512990  73.6710880   2.5182760  10.0710330  75.0095960   2.1773800
  10.1857240  82.8468810  14.3377060  10.1194550  81.9264480  14.0834650
   9.5562380  82.9444250  15.0521700   4.0887860  83.4474770   6.2960480
   4.6066530  82.6443030   6.2417370   3.6371880  83.3853910   7.1377310
   4.7745520  80.8720380  16.0925730   4.4745660  81.0177560  15.1953550
   5.5456760  80.3125670  15.9999120  16.3285180  82.3096720  13.4349440
  15.6033370  82.9025500  13.2378830  16.8560640  82.3020260  12.6362810
  11.8584770  84.0356890   6.9333290  12.2108590  83.4385020   6.2734660
  10.9747100  83.7101120   7.1041540   7.2475260  81.8000610   3.9529060
   7.7038040  82.6105860   4.1789250   6.8963470  81.4823750   4.7847550
   3.1487040  72.1438260   4.4251580   3.0201670  72.1356160   5.3736500
   2.3249060  72.4821350   4.0742590  11.6419750  76.3951690  11.6359730
  12.0100570  75.5746900  11.9639300  10.7817950  76.4553580  12.0515380
  15.0081780  75.3508630   2.4447290  14.3794940  75.4554300   1.7305520
  14.5133700  75.5705410   3.2341170   6.9765810  77.6294580   3.8605170
   6.2681960  78.0980920   4.3018780   7.2610290  76.9716590   4.4950360
   8.6021740  79.0491280  11.8597700   9.1006990  79.5237100  12.5249550
   8.7444690  78.1254800  12.0667730  11.0081240  74.3545240   5.3000960
  10.8849020  74.3731370   4.3510470  11.9565800  74.4024180   5.4199360
  15.8088600  75.2659240  12.7026090  15.3062200  76.0064640  13.0419900
  16.6245260  75.6543240  12.3862880  14.1010610  80.5092420   6.1487450
  13.1600750  80.5242650   6.3235140  14.4154680  79.7228380   6.5947750
  11.4176630  85.0658420  16.6319830  10.8114790  85.0890020  15.8915580
  11.1130740  84.3341460  17.1687080   7.3547750  82.8523000  15.1615990
   6.5893420  83.4208000  15.0770660   7.5363710  82.5599210  14.2684220
  14.4971100  84.5828330  15.7191010  15.2380570  84.9204090  15.2158470
  13.7343780  84.7520390  15.1660780   2.3332890  79.5881600  16.5230540
   2.3738230  79.2895470  17.4315770   3.1878390  79.9889210  16.3638060
   4.2738700  78.1673700  14.4905030   3.7435160  77.6764650  13.8628370
   4.9426770  78.5957900  13.9562960  13.1716760  82.6343160  14.2546220
  13.5857780  82.7888240  15.1036640  12.2367760  82.7598380  14.4172000
  13.6438930  79.9739320  16.2585370  14.2259700  79.2191640  16.1705850
  13.8200700  80.5046760  15.4816850   4.7611000  75.1336070  14.5702320
   4.6667870  74.5156820  13.8453190   4.1808390  75.8602360  14.3432230
   7.5272440  73.6909310  11.6029710   7.0789740  73.7133570  10.7575260
   6.8937640  73.2928330  12.2000010   7.9331990  82.5863640  12.2242150
   8.3520100  83.4296370  12.0518390   7.0140620  82.7235680  11.9948930
  10.2695890  80.3179820  13.6079990  10.3892100  79.7220960  14.3474830
  11.1289890  80.3549510  13.1881290  12.6083790  80.8717010  12.1842500
  12.0819010  81.3959630  11.5807640  12.9515130  81.5044400  12.8152230
   7.0364660  76.8601170  14.8655810   7.6264350  76.5517020  15.5533630
   6.2184900  76.3880920  15.0215710  11.8558090  76.4766980  15.0988830
  11.1673610  75.8148520  15.0338820  12.5764110  76.0305250  15.5437290
  16.8639210  82.3095340   1.7683000  17.6258120  82.8791990   1.8742690
  16.8793580  81.7422540   2.5391310  17.8699180  83.1645440   6.6124930
  18.2408010  82.3812760   6.2060900  18.5101110  83.8534540   6.4342230
  16.8123720  80.5398700   3.9184950  16.4367320  79.7726630   3.4866240
  16.0826840  80.9221400   4.4059880  16.2023340  79.6870220  13.5524470
  15.9709430  79.4582970  12.6522420  16.4627890  80.6069770  13.5069360
  14.6411410  74.9126650  16.3304170  15.5181590  74.9210050  16.7138170
  14.6532250  74.1757490  15.7196520  16.0874680  78.7656190   7.2192190
  16.6112160  78.2718840   6.5882360  16.6734100  78.9006550   7.9639760
  16.2664400  78.8496060  10.7411740  15.3167110  78.8159600  10.8556730
  16.4477410  79.7596170  10.5061510  15.5774650  78.0229540   3.1584600
  16.0733770  77.7900410   3.9433480  15.3790720  77.1841380   2.7422240
  17.0061810  76.6590490   5.6922280  16.8961090  76.5046530   6.6304550
  17.7669400  76.1311430   5.4497690  15.3527530  72.5984620  12.1505280
  15.9899750  73.2118760  12.5164470  15.5002420  72.6345280  11.2054510
   8.7232010  73.7510810  15.0580380   8.6620900  74.3432640  15.8075790
   9.6632390  73.6436770  14.9130640  11.3606570  73.4080870  14.6972670
  11.9746980  73.7260160  14.0353750  11.9056130  72.9229460  15.3168530
   1.8827830  72.0875130  14.8111730   2.4310820  71.9063180  14.0477840
   1.9483140  71.2969240  15.3468040  12.1014610  71.9713010  11.0241960
  11.2274450  72.3048120  10.8214890  11.9925360  71.4986190  11.8493830
  13.0086590  74.1783880  12.4083680  12.6799950  73.3635640  12.0285410
  13.9568890  74.1353690  12.2849370   9.8489430  72.8882850   9.9634870
   9.0661220  73.3628350  10.2431630   9.5552360  71.9837680   9.8548050
  14.4010500  73.5905950   8.0083960  14.8418590  73.5351050   7.1605560
  14.1318090  74.5063960   8.0794140  16.2649070  73.2221190   6.0192780
  16.2037470  72.2782410   5.8723800  17.0441100  73.3301280   6.5646240
   7.7343650  75.3069600   5.4750900   6.9218160  74.9326490   5.1346780
   8.2385290  74.5514680   5.7772090  12.2368630  71.9712050   6.7133970
  12.8398000  72.5432260   7.1882490  11.4961620  72.5351490   6.4907870
  15.3803230  72.3733610   1.9874250  15.5753860  73.2717060   2.2541680
  14.5933100  72.1420690   2.4807200   5.7592830  73.4569520   4.0795950
   5.1295570  72.7556830   4.2466080   5.2197970  74.2173650   3.8629110
   5.8848390  72.7353500  16.5148440   5.6032660  73.2387100  15.7509260
   6.2668090  71.9375250  16.1490570  12.4863850  72.1507080  17.0928910
  12.3729300  72.4701690  17.9880430  13.3033590  72.5519590  16.7966190
  11.3922000  61.3956060  81.3281100  11.3116050  60.4810670  81.0572810
  10.9786420  61.8923130  80.6220810   9.5240040  63.1735080  83.2090370
   8.7482140  62.6935520  83.4988940  10.1752970  62.4940730  83.0346530
   3.5405870  63.4854890  84.0866130   2.7090750  63.2303600  84.4862640
   4.1486850  63.5565660  84.8224050  13.5447470  67.5795270  81.9889500
  13.0829000  66.8082510  82.3176670  14.3573020  67.6061340  82.4941950
   3.5207130  67.5194980  84.2824150   3.8235170  66.6292720  84.1034370
   4.2650720  68.0765200  84.0546400   9.7710780  69.8653280  81.6093490
   9.1522220  70.3210780  81.0387930  10.6262560  70.0204740  81.2083190
   8.9649030  65.8492270  83.2160530   8.8957310  64.9082210  83.0549660
   9.7268890  65.9393680  83.7883100   9.9954200  58.6562650  83.4429460
  10.3719020  57.7834530  83.3303130   9.8973710  58.9921350  82.5519900
   4.1259210  57.0288280  78.9046900   4.2325960  57.9292010  79.2115660
   3.2151570  56.9806250  78.6141550  13.7778320  56.1513090  80.3757800
  14.5987940  55.6609660  80.4183280  13.8112400  56.7410750  81.1289640
   5.9666940  59.9974650  83.2372080   6.4745160  60.4955620  83.8777100
   6.4980180  59.2209850  83.0611440  18.0677870  58.1679840  86.9401430
  17.3630040  58.5561550  86.4216540  18.3335790  58.8630130  87.5422360
   4.2503040  54.6373210  87.5035500   4.2521480  55.1545600  86.6981400
   3.4207350  54.1603390  87.4805430  10.6374130  64.7492520  79.0025400
  10.0191400  65.2141970  78.4388120  11.1497380  65.4420000  79.4194910
   5.5005890  64.2768390  85.6809000   5.1675270  64.9037310  86.3230070
   5.6772570  64.8030270  84.9010670  14.0139800  58.0913470  83.1485340
  13.3095370  58.3798360  83.7288450  14.3751960  58.9013580  82.7884900
   3.9318370  56.3483170  85.5105950   4.2735180  57.1925220  85.2159820
   2.9934180  56.4966910  85.6271290   4.7124990  66.2449190  87.4958180
   5.3298990  66.9200270  87.2142630   3.8518110  66.6537170  87.4045680
  15.6302580  67.7088600  85.4112820  14.9466100  68.3787710  85.4029490
  16.1696870  67.9069250  84.6457680  17.0826720  57.5368260  83.5394550
  16.1351630  57.5707240  83.6709980  17.4076710  58.3507210  83.9243910
   7.6146260  53.8365440  81.8350540   7.9221240  53.2812330  81.1186040
   6.6846960  53.9709900  81.6523530  13.1661320  69.5532730  84.1258000
  13.1788480  69.1495020  83.2580260  12.6136540  70.3280020  84.0219430
  14.4606740  66.2748950  79.2148170  14.3503070  65.3323280  79.3397590
  14.4574990  66.6364590  80.1010930  12.5646760  64.4562570  85.4540610
  12.9815550  64.2422680  84.6194070  13.2886580  64.7135360  86.0249230
  10.0027020  61.9014270  78.5710660   9.0756300  61.8351650  78.7999130
  10.1551840  62.8394400  78.4565900   9.9896100  58.1731270  75.5677820
   9.0499770  58.3345230  75.6530280  10.3079360  58.8916950  75.0213810
  16.5108860  62.8549790  85.5456850  15.6827490  62.9242880  85.0706980
  17.1059340  63.4404100  85.0772680  14.0324310  63.4634570  79.0745910
  13.4136730  63.1254120  78.4272210  14.0148760  62.8194330  79.7825100
  13.4750870  59.6419110  86.4911720  13.0622050  60.4672820  86.7451710
  12.7426820  59.0564150  86.2988080   5.6083660  62.4279010  81.3530390
   5.2040660  61.7156260  80.8576290   5.6946780  62.0832250  82.2418430
   6.0765360  66.1146570  83.5169600   5.7793650  65.5092040  82.8377380
   7.0265180  66.1523880  83.4058960   4.3212280  59.2022220  85.1329430
   4.8726870  59.3117560  84.3582680   4.8355790  59.5759820  85.8484660
  14.1650970  69.6878440  87.1792700  13.6881530  70.4950630  86.9865310
  13.4812760  69.0356770  87.3318910  12.2089010  62.7021380  76.0818660
  12.6482290  61.8643810  75.9356480  12.9217430  63.3350780  76.1682800
   3.9955010  62.7241580  88.7434770   3.8562780  63.5964380  89.1122170
   3.1136370  62.3814390  88.5982710  10.3184390  67.6417450  80.0499900
  10.7580300  68.3841780  79.6355290  10.2571280  67.8844020  80.9738860
  15.7906150  53.9564190  74.3959700  15.4778810  54.0491020  75.2958770
  16.5518620  54.5345220  74.3457130   2.3088290  61.3223990  78.8537040
   2.1885890  62.0486080  78.2418310   1.9989180  60.5526900  78.3764950
  11.0100170  70.3431230  87.9778910  11.5244840  70.2539240  88.7801340
  10.1669250  70.6890930  88.2706820  12.9854570  70.6286570  77.4062910
  12.8255710  70.3389510  78.3044740  12.8201280  69.8526700  76.8708140
   5.4642950  70.4085100  79.1834530   5.2885430  69.4920640  78.9702330
   4.6098690  70.7672390  79.4232330  12.6880700  68.1374130  75.9660910
  11.9945860  68.1351420  75.3063190  13.4303560  67.7133450  75.5355080
  12.2530630  69.7636840  80.0409400  12.7087580  68.9826220  80.3548020
  12.5923150  70.4743660  80.5850580   4.7751950  54.6659060  82.2360710
   4.3320100  55.4468600  81.9045230   5.3336940  54.9888950  82.9431650
   9.0621760  57.5327580  87.8396030   8.6001130  57.7410600  88.6515970
   8.6599870  56.7186930  87.5366700   7.8910770  54.2869760  77.1166540
   7.2664950  54.2829630  77.8419850   7.8040890  53.4200720  76.7202510
   6.8127850  55.2106390  84.0950310   7.1100180  56.1169220  84.0142330
   7.3613410  54.7225170  83.4809880   4.5666170  59.7892630  79.9641960
   4.3407090  59.5729800  80.8688580   3.7858700  60.2221090  79.6187930
  11.7963930  59.7956000  78.5632610  11.1972820  60.5191800  78.3796230
  12.3443540  59.7332780  77.7809060  10.4028800  58.4319540  80.5935890
  10.7958370  58.7491740  79.7804580  10.7645650  57.5531420  80.7080410
  10.9883940  61.0225290  84.6886670  10.2565060  61.5312100  85.0376770
  10.5908280  60.2055270  84.3875450   7.4261330  57.6979490  83.0939160
   7.4297390  57.2569440  82.2443700   8.3212450  58.0196820  83.2010980
   3.2763710  57.5805980  82.0533370   2.9363760  58.0581210  82.8100420
   2.5141030  57.1271100  81.6934470   7.4881480  58.6991570  76.0845920
   7.6094300  58.6578050  77.0331740   7.1029990  59.5615720  75.9292650
  11.4509850  56.4758970  84.1009610  11.4682590  56.9267620  84.9451460
  11.2025430  55.5764610  84.3143050   6.5002980  61.0092710  75.4829220
   5.9319880  60.5610960  74.8565130   7.2091980  61.3685490  74.9494370
   7.7269300  61.7581270  84.8404570   8.0939430  61.2839840  85.5865910
   7.5374360  62.6322840  85.1812910   5.5168670  60.7989910  87.1588780
   5.2125740  61.6781890  87.3839140   6.4715130  60.8589700  87.1946220
   4.0450460  65.0050900  77.7555630   3.2712720  64.4648520  77.5954350
   4.7745090  64.4857510  77.4173390  14.8038440  64.0016260  83.5482020
  15.5237560  64.4971550  83.1578130  14.6020260  63.3234150  82.9035890
  10.2648380  55.3954220  77.6911410   9.4512990  54.8967390  77.6156720
  10.0710330  56.2352470  77.2747760  12.9796770  59.7673870  75.9873570
  13.8676390  60.0791100  75.8124910  12.9501860  58.8946120  75.5954150
   4.0887860  64.6731280  81.3934440   4.6066530  63.8699540  81.3391330
   3.6371880  64.6110420  82.2351270   8.9757360  65.9397560  76.6661740
   9.3173060  66.6839790  76.1705060   8.1470070  66.2528680  77.0286570
  15.2511040  61.0785710  75.4553430  15.1674760  61.5099930  74.6049870
  15.9705230  61.5384060  75.8880250  16.3285180  63.5353230  88.5323400
  15.6033370  64.1282010  88.3352790  16.8560640  63.5276770  87.7336770
  16.2798290  67.9327970  78.1835560  15.6374450  67.2783590  78.4579280
  15.8928950  68.3383060  77.4076230  11.8584770  65.2613400  82.0307250
  12.2108590  64.6641530  81.3708620  10.9747100  64.9357630  82.2015500
   7.9448050  66.0211090  79.4377660   8.6319180  66.5680300  79.8185250
   7.1580470  66.5651820  79.4727270   7.2475260  63.0257120  79.0503020
   7.7038040  63.8362370  79.2763210   6.8963470  62.7080260  79.8821510
   9.5507870  68.5363460  86.2795320  10.1950090  68.7422840  86.9568740
   9.9137310  67.7751860  85.8266170   3.1487040  53.3694770  79.5225540
   3.0201670  53.3612670  80.4710460   2.3249060  53.7077860  79.1716550
  10.8239950  66.5395810  84.9972770  11.4662180  65.8388970  85.1104940
  11.3489300  67.3194250  84.8169660  14.6695670  66.8244430  74.7211910
  14.4433250  66.1074870  75.3136550  14.2791870  66.5756870  73.8833660
  12.5977570  67.3390710  88.2008830  12.9333810  67.9257400  88.8786750
  11.6777910  67.2083420  88.4306620  14.2511920  64.7416370  76.3826070
  13.9633620  65.2029060  77.1703950  15.0464090  64.2814140  76.6510290
   6.4680320  68.2342490  76.3130040   6.4590420  68.9672180  75.6974550
   5.5478680  67.9874070  76.4057000  11.6419750  57.6208200  86.7333690
  12.0100570  56.8003410  87.0613260  10.7817950  57.6810090  87.1489340
  15.0081780  56.5765140  77.5421250  14.3794940  56.6810810  76.8279480
  14.5133700  56.7961920  78.3315130   9.4539920  68.2970730  74.9755230
   9.5551900  68.0934720  74.0457210   8.5541660  68.0429010  75.1803010
   6.9765810  58.8551090  78.9579130   6.2681960  59.3237430  79.3992740
   7.2610290  58.1973100  79.5924320   8.6021740  60.2747790  86.9571660
   9.1006990  60.7493610  87.6223510   8.7444690  59.3511310  87.1641690
  11.0081240  55.5801750  80.3974920  10.8849020  55.5987880  79.4484430
  11.9565800  55.6280690  80.5173320   8.0958030  70.8157050  79.6702900
   8.3499530  70.7778440  78.7482270   7.1470510  70.6890380  79.6631150
   5.1800830  57.1636170  76.3329840   6.0291360  57.6006320  76.2670030
   4.8132100  57.4756430  77.1601900  15.8088600  56.4915750  87.8000050
  15.3062200  57.2321150  88.1393860  16.6245260  56.8799750  87.4836840
  14.1010610  61.7348930  81.2461410  13.1600750  61.7499160  81.4209100
  14.4154680  60.9484890  81.6921710   4.0792250  63.4168530  74.8065370
   4.8455520  63.3049890  75.3690800   4.1566940  62.7206500  74.1542140
   2.7739010  60.8493600  75.4898260   2.8542600  59.9021110  75.6015660
   3.6658760  61.1800480  75.5958920  16.1036190  68.9057780  82.9215670
  16.2283610  69.7288950  83.3939480  16.9701750  68.6948510  82.5739820
   3.5753720  70.9988990  82.5932800   4.3116200  70.4504450  82.8641370
   3.9594640  71.8645000  82.4538790   6.6856030  70.1719300  74.4158370
   7.4784640  70.4608130  73.9640160   6.1660380  69.7411470  73.7370850
  15.7386200  69.3989430  75.8395110  15.4527710  68.9854570  75.0249290
  15.5405750  70.3277140  75.7195630   7.2033430  65.3922710  74.2800720
   7.0984070  64.7775060  75.0062100   7.0357650  64.8688600  73.4963730
  10.4436160  64.4542740  74.8842710   9.8946260  64.9012040  75.5285450
  11.0655420  63.9491990  75.4080380   6.1111280  63.4133660  76.7808010
   6.5327700  63.2473530  77.6239400   6.2362120  62.6033890  76.2863150
   8.6238920  62.4371270  74.0285110   9.1444580  61.7220290  73.6626260
   9.2707320  63.0757140  74.3285620   7.5272440  54.9165820  86.7003670
   7.0789740  54.9390080  85.8549220   6.8937640  54.5184840  87.2973970
   7.9331990  63.8120150  87.3216110   8.3520100  64.6552880  87.1492350
   7.0140620  63.9492190  87.0922890  12.6083790  62.0973520  87.2816460
  12.0819010  62.6216140  86.6781600  12.9515130  62.7300910  87.9126190
   5.0070180  59.4866890  73.7266170   4.8059240  58.6234250  74.0879510
   4.8362230  59.4000250  72.7887770   5.7839410  70.1173160  88.4373840
   5.2460500  70.8419220  88.1182540   6.0373370  69.6403500  87.6471180
  12.4858490  54.2975120  76.2553050  12.7660780  53.4543020  76.6112470
  11.7124220  54.5298230  76.7691800   3.8052980  56.5867510  73.7144050
   4.1078880  56.5934940  72.8063200   4.5447570  56.2365370  74.2111710
   8.6401620  71.3524370  88.6960490   8.5660320  72.2559510  89.0032860
   7.7380460  71.0336270  88.6682560   7.0237910  55.5302130  74.7000250
   6.6759910  54.8526120  74.1202700   7.2250680  55.0691640  75.5143640
   9.1886950  70.5182880  76.3186850  10.0837740  70.8567850  76.3405610
   9.2204580  69.7962290  75.6911130   2.8283110  65.8909930  74.5473850
   3.2657980  66.4339600  75.2031430   3.3130840  65.0656880  74.5570190
   4.6390830  67.0107970  79.6596080   4.3386370  66.8872940  80.5599990
   4.5328320  66.1516560  79.2511810  17.4082750  66.7904370  74.3622760
  16.5775710  66.8581020  74.8329990  17.5854580  67.6808490  74.0589620
  16.8639210  63.5351850  76.8656960  17.6258120  64.1048500  76.9716650
  16.8793580  62.9679050  77.6365270  17.8699180  64.3901950  81.7098890
  18.2408010  63.6069270  81.3034860  18.5101110  65.0791050  81.5316190
  14.8532940  65.7738530  87.1229210  14.0392780  66.2035690  87.3855000
  15.2607140  66.3856940  86.5098260  16.9158380  63.8286220  74.0229480
  17.1907220  64.7365100  73.8948700  16.7269120  63.7648750  74.9591470
  13.3133990  56.8531070  75.3183110  13.7318870  56.6662050  74.4779770
  13.0070050  56.0010120  75.6286040  16.8123720  61.7655210  79.0158910
  16.4367320  60.9983140  78.5840200  16.0826840  62.1477910  79.5033840
  16.2023340  60.9126730  88.6498430  15.9709430  60.6839480  87.7496380
  16.4627890  61.8326280  88.6043320  16.0874680  59.9912700  82.3166150
  16.6112160  59.4975350  81.6856320  16.6734100  60.1263060  83.0613720
  16.2664400  60.0752570  85.8385700  15.3167110  60.0416110  85.9530690
  16.4477410  60.9852680  85.6035470   1.7683000  54.3793580  73.9886980
   2.4911130  54.9202520  74.3068200   2.0407520  54.1057000  73.1128520
  15.5774650  59.2486050  78.2558560  16.0733770  59.0156920  79.0407440
  15.3790720  58.4097890  77.8396200  17.0061810  57.8847000  80.7896240
  16.8961090  57.7303040  81.7278510  17.7669400  57.3567940  80.5471650
  15.3527530  53.8241130  87.2479240  15.9899750  54.4375270  87.6138430
  15.5002420  53.8601790  86.3028470  17.8952080  55.7154920  74.0302380
  18.8201390  55.5836100  73.8220670  17.8727870  55.7947740  74.9838830
  17.9690570  56.4865580  76.6559090  17.1742070  56.4210700  77.1852000
  18.1733850  57.4216220  76.6444440  14.9108990  70.5257130  80.6497480
  15.5068060  70.2041700  79.9731900  15.1687140  70.0528950  81.4410750
   6.5177590  68.5134630  86.3997830   6.2768950  68.7809190  85.5128350
   7.4580230  68.6840360  86.4548690  17.7781750  70.5329010  87.2008470
  17.2840030  70.9297880  86.4835600  17.1695040  69.9078220  87.5945750
   2.6559590  69.9037290  87.9185890   2.0619910  69.7721990  88.6575930
   2.6483430  69.0675430  87.4527990  12.1014610  53.1969520  86.1215920
  11.2274450  53.5304630  85.9188850  11.9925360  52.7242700  86.9467790
  13.0086590  55.4040390  87.5057640  12.6799950  54.5892150  87.1259370
  13.9568890  55.3610200  87.3823330  15.4621200  71.1752430  84.4795210
  15.0024170  71.9268240  84.1053230  14.8333660  70.4558900  84.4210010
   5.8916920  69.4840670  83.6543340   6.4081940  68.8728030  83.1291600
   6.5414300  69.9869450  84.1454350   8.6312420  70.3749160  84.4812320
   8.9190230  70.1203460  83.6045330   9.1435640  69.8226520  85.0717890
   9.8489430  54.1139360  85.0608830   9.0661220  54.5884860  85.3405590
   9.5552360  53.2094190  84.9522010  14.4010500  54.8162460  83.1057920
  14.8418590  54.7607560  82.2579520  14.1318090  55.7320470  83.1768100
  16.2649070  54.4477700  81.1166740  16.2037470  53.5038920  80.9697760
  17.0441100  54.5557790  81.6620200   7.7343650  56.5326110  80.5724860
   6.9218160  56.1583000  80.2320740   8.2385290  55.7771190  80.8746050
  12.2368630  53.1968560  81.8107930  12.8398000  53.7688770  82.2856450
  11.4961620  53.7608000  81.5881830  15.3803230  53.5990120  77.0848210
  15.5753860  54.4973570  77.3515640  14.5933100  53.3677200  77.5781160
   2.1764520  69.2803290  77.5240830   1.6512140  69.6611320  76.8202790
   2.1009100  69.9054060  78.2450540   3.5654990  54.9450890  76.1224520
   4.0947750  54.1580690  75.9932470   4.1983310  55.6242080  76.3560050
   5.7592830  54.6826030  79.1769910   5.1295570  53.9813340  79.3440040
   5.2197970  55.4430160  78.9603070  16.9329840  70.8390830  78.8454770
  17.1082030  70.1528570  78.2015690  16.2351410  71.3637880  78.4531440
   4.7757490  71.2285670  76.3990080   5.5076310  70.9444950  75.8513970
   5.0351160  70.9898950  77.2889460   3.9372280  67.3450400  76.4036410
   3.3081160  67.8135500  76.9522240   4.0520110  66.4999620  76.8382600
  11.3922000  61.3956060  62.5537610  11.3116050  60.4810670  62.2829320
  10.9786420  61.8923130  61.8477320   9.5240040  63.1735080  64.4346880
   8.7482140  62.6935520  64.7245450  10.1752970  62.4940730  64.2603040
   3.5405870  63.4854890  65.3122640   2.7090750  63.2303600  65.7119150
   4.1486850  63.5565660  66.0480560  13.5447470  67.5795270  63.2146010
  13.0829000  66.8082510  63.5433180  14.3573020  67.6061340  63.7198460
   3.5207130  67.5194980  65.5080660   3.8235170  66.6292720  65.3290880
   4.2650720  68.0765200  65.2802910   9.7710780  69.8653280  62.8350000
   9.1522220  70.3210780  62.2644440  10.6262560  70.0204740  62.4339700
   8.9649030  65.8492270  64.4417040   8.8957310  64.9082210  64.2806170
   9.7268890  65.9393680  65.0139610   9.9954200  58.6562650  64.6685970
  10.3719020  57.7834530  64.5559640   9.8973710  58.9921350  63.7776410
   4.1259210  57.0288280  60.1303410   4.2325960  57.9292010  60.4372170
   3.2151570  56.9806250  59.8398060  13.7778320  56.1513090  61.6014310
  14.5987940  55.6609660  61.6439790  13.8112400  56.7410750  62.3546150
   5.9666940  59.9974650  64.4628590   6.4745160  60.4955620  65.1033610
   6.4980180  59.2209850  64.2867950  18.0677870  58.1679840  68.1657940
  17.3630040  58.5561550  67.6473050  18.3335790  58.8630130  68.7678870
   4.2503040  54.6373210  68.7292010   4.2521480  55.1545600  67.9237910
   3.4207350  54.1603390  68.7061940  10.6374130  64.7492520  60.2281910
  10.0191400  65.2141970  59.6644630  11.1497380  65.4420000  60.6451420
   5.5005890  64.2768390  66.9065510   5.1675270  64.9037310  67.5486580
   5.6772570  64.8030270  66.1267180  14.0139800  58.0913470  64.3741850
  13.3095370  58.3798360  64.9544960  14.3751960  58.9013580  64.0141410
   3.9318370  56.3483170  66.7362460   4.2735180  57.1925220  66.4416330
   2.9934180  56.4966910  66.8527800   4.7124990  66.2449190  68.7214690
   5.3298990  66.9200270  68.4399140   3.8518110  66.6537170  68.6302190
  15.6302580  67.7088600  66.6369330  14.9466100  68.3787710  66.6286000
  16.1696870  67.9069250  65.8714190  17.0826720  57.5368260  64.7651060
  16.1351630  57.5707240  64.8966490  17.4076710  58.3507210  65.1500420
   7.6146260  53.8365440  63.0607050   7.9221240  53.2812330  62.3442550
   6.6846960  53.9709900  62.8780040  13.1661320  69.5532730  65.3514510
  13.1788480  69.1495020  64.4836770  12.6136540  70.3280020  65.2475940
  14.4606740  66.2748950  60.4404680  14.3503070  65.3323280  60.5654100
  14.4574990  66.6364590  61.3267440  12.5646760  64.4562570  66.6797120
  12.9815550  64.2422680  65.8450580  13.2886580  64.7135360  67.2505740
  10.0027020  61.9014270  59.7967170   9.0756300  61.8351650  60.0255640
  10.1551840  62.8394400  59.6822410   9.9896100  58.1731270  56.7934330
   9.0499770  58.3345230  56.8786790  10.3079360  58.8916950  56.2470320
  16.5108860  62.8549790  66.7713360  15.6827490  62.9242880  66.2963490
  17.1059340  63.4404100  66.3029190  14.0324310  63.4634570  60.3002420
  13.4136730  63.1254120  59.6528720  14.0148760  62.8194330  61.0081610
  13.4750870  59.6419110  67.7168230  13.0622050  60.4672820  67.9708220
  12.7426820  59.0564150  67.5244590   5.6083660  62.4279010  62.5786900
   5.2040660  61.7156260  62.0832800   5.6946780  62.0832250  63.4674940
   6.0765360  66.1146570  64.7426110   5.7793650  65.5092040  64.0633890
   7.0265180  66.1523880  64.6315470   4.3212280  59.2022220  66.3585940
   4.8726870  59.3117560  65.5839190   4.8355790  59.5759820  67.0741170
  14.1650970  69.6878440  68.4049210  13.6881530  70.4950630  68.2121820
  13.4812760  69.0356770  68.5575420   5.1683790  65.8528260  71.3933910
   4.2712320  66.0768230  71.6407310   5.1936660  65.9763200  70.4445310
  12.2089010  62.7021380  57.3075170  12.6482290  61.8643810  57.1612990
  12.9217430  63.3350780  57.3939310   3.9955010  62.7241580  69.9691280
   3.8562780  63.5964380  70.3378680   3.1136370  62.3814390  69.8239220
  10.3184390  67.6417450  61.2756410  10.7580300  68.3841780  60.8611800
  10.2571280  67.8844020  62.1995370   5.7935360  68.6663280  72.1776430
   5.7650790  69.0706230  71.3104860   5.6300330  67.7373640  72.0148030
  15.7906150  53.9564190  55.6216210  15.4778810  54.0491020  56.5215280
  16.5518620  54.5345220  55.5713640   2.3088290  61.3223990  60.0793550
   2.1885890  62.0486080  59.4674820   1.9989180  60.5526900  59.6021460
  17.7450180  69.4490380  73.4740600  18.2209900  69.9273270  74.1529680
  18.3657340  69.3807870  72.7486100  17.1483430  66.6403230  70.6340610
  17.2746490  66.4015110  69.7157790  17.1904810  65.8087770  71.1062690
  11.0100170  70.3431230  69.2035420  11.5244840  70.2539240  70.0057850
  10.1669250  70.6890930  69.4963330  12.9854570  70.6286570  58.6319420
  12.8255710  70.3389510  59.5301250  12.8201280  69.8526700  58.0964650
   5.4642950  70.4085100  60.4091040   5.2885430  69.4920640  60.1958840
   4.6098690  70.7672390  60.6488840  12.6880700  68.1374130  57.1917420
  11.9945860  68.1351420  56.5319700  13.4303560  67.7133450  56.7611590
  12.2530630  69.7636840  61.2665910  12.7087580  68.9826220  61.5804530
  12.5923150  70.4743660  61.8107090  17.0007440  58.6935690  71.5990350
  16.3851710  59.2015360  71.0705810  16.6803860  57.7934020  71.5416290
   4.7751950  54.6659060  63.4617220   4.3320100  55.4468600  63.1301740
   5.3336940  54.9888950  64.1688160   9.0621760  57.5327580  69.0652540
   8.6001130  57.7410600  69.8772480   8.6599870  56.7186930  68.7623210
  14.0626270  58.7536530  70.1949200  13.2119860  58.4542280  70.5158270
  13.9028060  58.9978540  69.2833020  11.1575980  60.2538280  72.2947990
  11.4829390  59.4202030  71.9550220  11.9456310  60.7766800  72.4426320
   7.8910770  54.2869760  58.3423050   7.2664950  54.2829630  59.0676360
   7.8040890  53.4200720  57.9459020   6.8127850  55.2106390  65.3206820
   7.1100180  56.1169220  65.2398840   7.3613410  54.7225170  64.7066390
   4.5666170  59.7892630  61.1898470   4.3407090  59.5729800  62.0945090
   3.7858700  60.2221090  60.8444440  11.7963930  59.7956000  59.7889120
  11.1972820  60.5191800  59.6052740  12.3443540  59.7332780  59.0065570
   7.0065380  60.6878210  71.8558740   6.9108980  59.7472940  71.7059140
   7.8497360  60.9093280  71.4606810  10.4028800  58.4319540  61.8192400
  10.7958370  58.7491740  61.0061090  10.7645650  57.5531420  61.9336920
   8.7120970  57.1826850  73.0789260   8.0219290  56.9899050  73.7135350
   9.4553270  57.4661490  73.6113560  10.9883940  61.0225290  65.9143180
  10.2565060  61.5312100  66.2633280  10.5908280  60.2055270  65.6131960
   7.4261330  57.6979490  64.3195670   7.4297390  57.2569440  63.4700210
   8.3212450  58.0196820  64.4267490   3.2763710  57.5805980  63.2789880
   2.9363760  58.0581210  64.0356930   2.5141030  57.1271100  62.9190980
   7.4881480  58.6991570  57.3102430   7.6094300  58.6578050  58.2588250
   7.1029990  59.5615720  57.1549160  11.4509850  56.4758970  65.3266120
  11.4682590  56.9267620  66.1707970  11.2025430  55.5764610  65.5399560
   6.5002980  61.0092710  56.7085730   5.9319880  60.5610960  56.0821640
   7.2091980  61.3685490  56.1750880  14.8780600  53.8891150  71.1652500
  15.2026370  53.1580810  71.6910480  14.9137110  53.5704790  70.2633490
   7.7269300  61.7581270  66.0661080   8.0939430  61.2839840  66.8122420
   7.5374360  62.6322840  66.4069420   5.5168670  60.7989910  68.3845290
   5.2125740  61.6781890  68.6095650   6.4715130  60.8589700  68.4202730
   4.0450460  65.0050900  58.9812140   3.2712720  64.4648520  58.8210860
   4.7745090  64.4857510  58.6429900  14.8038440  64.0016260  64.7738530
  15.5237560  64.4971550  64.3834640  14.6020260  63.3234150  64.1292400
  10.2648380  55.3954220  58.9167920   9.4512990  54.8967390  58.8413230
  10.0710330  56.2352470  58.5004270  10.1857240  64.0725320  70.6607530
  10.1194550  63.1520990  70.4065120   9.5562380  64.1700760  71.3752170
  12.9796770  59.7673870  57.2130080  13.8676390  60.0791100  57.0381420
  12.9501860  58.8946120  56.8210660   4.0887860  64.6731280  62.6190950
   4.6066530  63.8699540  62.5647840   3.6371880  64.6110420  63.4607780
   8.9757360  65.9397560  57.8918250   9.3173060  66.6839790  57.3961570
   8.1470070  66.2528680  58.2543080   4.7745520  62.0976890  72.4156200
   4.4745660  62.2434070  71.5184020   5.5456760  61.5382180  72.3229590
  10.1173970  66.8945890  70.4111330  10.1318510  65.9626850  70.1930240
   9.4099070  66.9805650  71.0501100  15.2511040  61.0785710  56.6809940
  15.1674760  61.5099930  55.8306380  15.9705230  61.5384060  57.1136760
  16.3285180  63.5353230  69.7579910  15.6033370  64.1282010  69.5609300
  16.8560640  63.5276770  68.9593280  16.2798290  67.9327970  59.4092070
  15.6374450  67.2783590  59.6835790  15.8928950  68.3383060  58.6332740
  11.8584770  65.2613400  63.2563760  12.2108590  64.6641530  62.5965130
  10.9747100  64.9357630  63.4272010   7.9448050  66.0211090  60.6634170
   8.6319180  66.5680300  61.0441760   7.1580470  66.5651820  60.6983780
   7.2475260  63.0257120  60.2759530   7.7038040  63.8362370  60.5019720
   6.8963470  62.7080260  61.1078020   9.5507870  68.5363460  67.5051830
  10.1950090  68.7422840  68.1825250   9.9137310  67.7751860  67.0522680
   3.1487040  53.3694770  60.7482050   3.0201670  53.3612670  61.6966970
   2.3249060  53.7077860  60.3973060  10.8239950  66.5395810  66.2229280
  11.4662180  65.8388970  66.3361450  11.3489300  67.3194250  66.0426170
  14.6695670  66.8244430  55.9468420  14.4433250  66.1074870  56.5393060
  14.2791870  66.5756870  55.1090170  12.5977570  67.3390710  69.4265340
  12.9333810  67.9257400  70.1043260  11.6777910  67.2083420  69.6563130
  14.2511920  64.7416370  57.6082580  13.9633620  65.2029060  58.3960460
  15.0464090  64.2814140  57.8766800   8.4266150  67.3882040  72.5953400
   8.1063020  66.6691280  73.1399090   7.7524510  68.0637110  72.6689460
   6.4680320  68.2342490  57.5386550   6.4590420  68.9672180  56.9231060
   5.5478680  67.9874070  57.6313510  11.6419750  57.6208200  67.9590200
  12.0100570  56.8003410  68.2869770  10.7817950  57.6810090  68.3745850
  15.0081780  56.5765140  58.7677760  14.3794940  56.6810810  58.0535990
  14.5133700  56.7961920  59.5571640   9.4539920  68.2970730  56.2011740
   9.5551900  68.0934720  55.2713720   8.5541660  68.0429010  56.4059520
   6.9765810  58.8551090  60.1835640   6.2681960  59.3237430  60.6249250
   7.2610290  58.1973100  60.8180830   8.6021740  60.2747790  68.1828170
   9.1006990  60.7493610  68.8480020   8.7444690  59.3511310  68.3898200
  11.0081240  55.5801750  61.6231430  10.8849020  55.5987880  60.6740940
  11.9565800  55.6280690  61.7429830   8.0958030  70.8157050  60.8959410
   8.3499530  70.7778440  59.9738780   7.1470510  70.6890380  60.8887660
   5.1800830  57.1636170  57.5586350   6.0291360  57.6006320  57.4926540
   4.8132100  57.4756430  58.3858410  15.8088600  56.4915750  69.0256560
  15.3062200  57.2321150  69.3650370  16.6245260  56.8799750  68.7093350
  14.1010610  61.7348930  62.4717920  13.1600750  61.7499160  62.6465610
  14.4154680  60.9484890  62.9178220   4.0792250  63.4168530  56.0321880
   4.8455520  63.3049890  56.5947310   4.1566940  62.7206500  55.3798650
   2.7739010  60.8493600  56.7154770   2.8542600  59.9021110  56.8272170
   3.6658760  61.1800480  56.8215430  16.1036190  68.9057780  64.1472180
  16.2283610  69.7288950  64.6195990  16.9701750  68.6948510  63.7996330
   3.5753720  70.9988990  63.8189310   4.3116200  70.4504450  64.0897880
   3.9594640  71.8645000  63.6795300   2.5812000  70.1835060  73.0074890
   3.3824730  70.5047110  73.4210290   2.0663820  69.8230640  73.7294800
   6.6856030  70.1719300  55.6414880   7.4784640  70.4608130  55.1896670
   6.1660380  69.7411470  54.9627360  11.4176630  66.2914930  72.9550300
  10.8114790  66.3146530  72.2146050  11.1130740  65.5597970  73.4917550
  12.8477000  70.0195220  71.5659710  13.7998750  69.9353240  71.5159950
  12.7005220  70.6836930  72.2393500  15.7386200  69.3989430  57.0651620
  15.4527710  68.9854570  56.2505800  15.5405750  70.3277140  56.9452140
   7.2033430  65.3922710  55.5057230   7.0984070  64.7775060  56.2318610
   7.0357650  64.8688600  54.7220240   7.3547750  64.0779510  71.4846460
   6.5893420  64.6464510  71.4001130   7.5363710  63.7855720  70.5914690
  10.4436160  64.4542740  56.1099220   9.8946260  64.9012040  56.7541960
  11.0655420  63.9491990  56.6336890  14.4971100  65.8084840  72.0421480
  15.2380570  66.1460600  71.5388940  13.7343780  65.9776900  71.4891250
   2.3332890  60.8138110  72.8461010   2.3738230  60.5151980  73.7546240
   3.1878390  61.2145720  72.6868530   6.1111280  63.4133660  58.0064520
   6.5327700  63.2473530  58.8495910   6.2362120  62.6033890  57.5119660
   4.2738700  59.3930210  70.8135500   3.7435160  58.9021160  70.1858840
   4.9426770  59.8214410  70.2793430   8.6238920  62.4371270  55.2541620
   9.1444580  61.7220290  54.8882770   9.2707320  63.0757140  55.5542130
  13.1716760  63.8599670  70.5776690  13.5857780  64.0144750  71.4267110
  12.2367760  63.9854890  70.7402470  13.6438930  61.1995830  72.5815840
  14.2259700  60.4448150  72.4936320  13.8200700  61.7303270  71.8047320
   4.7611000  56.3592580  70.8932790   4.6667870  55.7413330  70.1683660
   4.1808390  57.0858870  70.6662700   7.5272440  54.9165820  67.9260180
   7.0789740  54.9390080  67.0805730   6.8937640  54.5184840  68.5230480
   7.9331990  63.8120150  68.5472620   8.3520100  64.6552880  68.3748860
   7.0140620  63.9492190  68.3179400  10.2695890  61.5436330  69.9310460
  10.3892100  60.9477470  70.6705300  11.1289890  61.5806020  69.5111760
  12.6083790  62.0973520  68.5072970  12.0819010  62.6216140  67.9038110
  12.9515130  62.7300910  69.1382700   5.0070180  59.4866890  54.9522680
   4.8059240  58.6234250  55.3136020   4.8362230  59.4000250  54.0144280
   5.7839410  70.1173160  69.6630350   5.2460500  70.8419220  69.3439050
   6.0373370  69.6403500  68.8727690   7.0364660  58.0857680  71.1886280
   7.6264350  57.7773530  71.8764100   6.2184900  57.6137430  71.3446180
  11.8558090  57.7023490  71.4219300  11.1673610  57.0405030  71.3569290
  12.5764110  57.2561760  71.8667760  12.4858490  54.2975120  57.4809560
  12.7660780  53.4543020  57.8368980  11.7124220  54.5298230  57.9948310
   3.8052980  56.5867510  54.9400560   4.1078880  56.5934940  54.0319710
   4.5447570  56.2365370  55.4368220   8.6401620  71.3524370  69.9217000
   8.5660320  72.2559510  70.2289370   7.7380460  71.0336270  69.8939070
   7.0237910  55.5302130  55.9256760   6.6759910  54.8526120  55.3459210
   7.2250680  55.0691640  56.7400150   9.1886950  70.5182880  57.5443360
  10.0837740  70.8567850  57.5662120   9.2204580  69.7962290  56.9167640
   2.8283110  65.8909930  55.7730360   3.2657980  66.4339600  56.4287940
   3.3130840  65.0656880  55.7826700   4.6390830  67.0107970  60.8852590
   4.3386370  66.8872940  61.7856500   4.5328320  66.1516560  60.4768320
  16.1681300  69.0486550  70.2509560  15.5683290  69.1079110  69.5073480
  16.2975200  68.1091530  70.3806410  17.4082750  66.7904370  55.5879270
  16.5775710  66.8581020  56.0586500  17.5854580  67.6808490  55.2846130
  16.8639210  63.5351850  58.0913470  17.6258120  64.1048500  58.1973160
  16.8793580  62.9679050  58.8621780  17.8699180  64.3901950  62.9355400
  18.2408010  63.6069270  62.5291370  18.5101110  65.0791050  62.7572700
  14.8532940  65.7738530  68.3485720  14.0392780  66.2035690  68.6111510
  15.2607140  66.3856940  67.7354770  16.9158380  63.8286220  55.2485990
  17.1907220  64.7365100  55.1205210  16.7269120  63.7648750  56.1847980
  13.3133990  56.8531070  56.5439620  13.7318870  56.6662050  55.7036280
  13.0070050  56.0010120  56.8542550  16.8123720  61.7655210  60.2415420
  16.4367320  60.9983140  59.8096710  16.0826840  62.1477910  60.7290350
  16.2023340  60.9126730  69.8754940  15.9709430  60.6839480  68.9752890
  16.4627890  61.8326280  69.8299830  14.6411410  56.1383160  72.6534640
  15.5181590  56.1466560  73.0368640  14.6532250  55.4014000  72.0426990
  16.0874680  59.9912700  63.5422660  16.6112160  59.4975350  62.9112830
  16.6734100  60.1263060  64.2870230  16.2664400  60.0752570  67.0642210
  15.3167110  60.0416110  67.1787200  16.4477410  60.9852680  66.8291980
   1.7683000  54.3793580  55.2143490   2.4911130  54.9202520  55.5324710
   2.0407520  54.1057000  54.3385030  15.5774650  59.2486050  59.4815070
  16.0733770  59.0156920  60.2663950  15.3790720  58.4097890  59.0652710
  17.0061810  57.8847000  62.0152750  16.8961090  57.7303040  62.9535020
  17.7669400  57.3567940  61.7728160  15.3527530  53.8241130  68.4735750
  15.9899750  54.4375270  68.8394940  15.5002420  53.8601790  67.5284980
  17.8952080  55.7154920  55.2558890  18.8201390  55.5836100  55.0477180
  17.8727870  55.7947740  56.2095340  17.9690570  56.4865580  57.8815600
  17.1742070  56.4210700  58.4108510  18.1733850  57.4216220  57.8700950
  14.9108990  70.5257130  61.8753990  15.5068060  70.2041700  61.1988410
  15.1687140  70.0528950  62.6667260   2.8171560  66.9575040  72.0244620
   2.7741190  66.5867950  72.9059080   2.9482570  67.8952610  72.1646440
   6.5177590  68.5134630  67.6254340   6.2768950  68.7809190  66.7384860
   7.4580230  68.6840360  67.6805200   8.7232010  54.9767320  71.3810850
   8.6620900  55.5689150  72.1306260   9.6632390  54.8693280  71.2361110
  11.3606570  54.6337380  71.0203140  11.9746980  54.9516670  70.3584220
  11.9056130  54.1485970  71.6399000  17.7781750  70.5329010  68.4264980
  17.2840030  70.9297880  67.7092110  17.1695040  69.9078220  68.8202260
   1.8827830  53.3131640  71.1342200   2.4310820  53.1319690  70.3708310
   1.9483140  52.5225750  71.6698510   2.6559590  69.9037290  69.1442400
   2.0619910  69.7721990  69.8832440   2.6483430  69.0675430  68.6784500
  12.1014610  53.1969520  67.3472430  11.2274450  53.5304630  67.1445360
  11.9925360  52.7242700  68.1724300  13.0086590  55.4040390  68.7314150
  12.6799950  54.5892150  68.3515880  13.9568890  55.3610200  68.6079840
  15.4621200  71.1752430  65.7051720  15.0024170  71.9268240  65.3309740
  14.8333660  70.4558900  65.6466520   5.8916920  69.4840670  64.8799850
   6.4081940  68.8728030  64.3548110   6.5414300  69.9869450  65.3710860
   8.6312420  70.3749160  65.7068830   8.9190230  70.1203460  64.8301840
   9.1435640  69.8226520  66.2974400   9.8489430  54.1139360  66.2865340
   9.0661220  54.5884860  66.5662100   9.5552360  53.2094190  66.1778520
  14.4010500  54.8162460  64.3314430  14.8418590  54.7607560  63.4836030
  14.1318090  55.7320470  64.4024610  16.2649070  54.4477700  62.3423250
  16.2037470  53.5038920  62.1954270  17.0441100  54.5557790  62.8876710
   7.7343650  56.5326110  61.7981370   6.9218160  56.1583000  61.4577250
   8.2385290  55.7771190  62.1002560  12.2368630  53.1968560  63.0364440
  12.8398000  53.7688770  63.5112960  11.4961620  53.7608000  62.8138340
  15.3803230  53.5990120  58.3104720  15.5753860  54.4973570  58.5772150
  14.5933100  53.3677200  58.8037670   2.1764520  69.2803290  58.7497340
   1.6512140  69.6611320  58.0459300   2.1009100  69.9054060  59.4707050
   3.5654990  54.9450890  57.3481030   4.0947750  54.1580690  57.2188980
   4.1983310  55.6242080  57.5816560   5.7592830  54.6826030  60.4026420
   5.1295570  53.9813340  60.5696550   5.2197970  55.4430160  60.1859580
   8.6984780  71.2965260  73.0737030   9.6252090  71.0609530  73.1172990
   8.6835210  72.1237260  72.5923060  16.9329840  70.8390830  60.0711280
  17.1082030  70.1528570  59.4272200  16.2351410  71.3637880  59.6787950
   5.8848390  53.9610010  72.8378910   5.6032660  54.4643610  72.0739730
   6.2668090  53.1631760  72.4721040   4.7757490  71.2285670  57.6246590
   5.5076310  70.9444950  57.0770480   5.0351160  70.9898950  58.5145970
   3.9372280  67.3450400  57.6292920   3.3081160  67.8135500  58.1778750
   4.0520110  66.4999620  58.0639110  12.4863850  53.3763590  73.4159380
  12.3729300  53.6958200  74.3110900  13.3033590  53.7776100  73.1196660
  15.2662340  70.5235120  72.8978070  16.0587660  70.0284350  72.6904030
  15.5595490  71.2025260  73.5053680  11.3922000  61.3956060  43.7794120
  11.3116050  60.4810670  43.5085830  10.9786420  61.8923130  43.0733830
   9.5240040  63.1735080  45.6603390   8.7482140  62.6935520  45.9501960
  10.1752970  62.4940730  45.4859550   3.5405870  63.4854890  46.5379150
   2.7090750  63.2303600  46.9375660   4.1486850  63.5565660  47.2737070
  13.5447470  67.5795270  44.4402520  13.0829000  66.8082510  44.7689690
  14.3573020  67.6061340  44.9454970   3.5207130  67.5194980  46.7337170
   3.8235170  66.6292720  46.5547390   4.2650720  68.0765200  46.5059420
   9.7710780  69.8653280  44.0606510   9.1522220  70.3210780  43.4900950
  10.6262560  70.0204740  43.6596210   8.9649030  65.8492270  45.6673550
   8.8957310  64.9082210  45.5062680   9.7268890  65.9393680  46.2396120
   9.9954200  58.6562650  45.8942480  10.3719020  57.7834530  45.7816150
   9.8973710  58.9921350  45.0032920   4.1259210  57.0288280  41.3559920
   4.2325960  57.9292010  41.6628680   3.2151570  56.9806250  41.0654570
  13.7778320  56.1513090  42.8270820  14.5987940  55.6609660  42.8696300
  13.8112400  56.7410750  43.5802660   5.9666940  59.9974650  45.6885100
   6.4745160  60.4955620  46.3290120   6.4980180  59.2209850  45.5124460
  18.0677870  58.1679840  49.3914450  17.3630040  58.5561550  48.8729560
  18.3335790  58.8630130  49.9935380   4.2503040  54.6373210  49.9548520
   4.2521480  55.1545600  49.1494420   3.4207350  54.1603390  49.9318450
  10.6374130  64.7492520  41.4538420  10.0191400  65.2141970  40.8901140
  11.1497380  65.4420000  41.8707930   5.5005890  64.2768390  48.1322020
   5.1675270  64.9037310  48.7743090   5.6772570  64.8030270  47.3523690
  14.0139800  58.0913470  45.5998360  13.3095370  58.3798360  46.1801470
  14.3751960  58.9013580  45.2397920   3.9318370  56.3483170  47.9618970
   4.2735180  57.1925220  47.6672840   2.9934180  56.4966910  48.0784310
   4.7124990  66.2449190  49.9471200   5.3298990  66.9200270  49.6655650
   3.8518110  66.6537170  49.8558700  15.6302580  67.7088600  47.8625840
  14.9466100  68.3787710  47.8542510  16.1696870  67.9069250  47.0970700
  17.0826720  57.5368260  45.9907570  16.1351630  57.5707240  46.1223000
  17.4076710  58.3507210  46.3756930   7.6146260  53.8365440  44.2863560
   7.9221240  53.2812330  43.5699060   6.6846960  53.9709900  44.1036550
  13.1661320  69.5532730  46.5771020  13.1788480  69.1495020  45.7093280
  12.6136540  70.3280020  46.4732450  14.4606740  66.2748950  41.6661190
  14.3503070  65.3323280  41.7910610  14.4574990  66.6364590  42.5523950
  12.5646760  64.4562570  47.9053630  12.9815550  64.2422680  47.0707090
  13.2886580  64.7135360  48.4762250  10.0027020  61.9014270  41.0223680
   9.0756300  61.8351650  41.2512150  10.1551840  62.8394400  40.9078920
   9.9896100  58.1731270  38.0190840   9.0499770  58.3345230  38.1043300
  10.3079360  58.8916950  37.4726830  16.5108860  62.8549790  47.9969870
  15.6827490  62.9242880  47.5220000  17.1059340  63.4404100  47.5285700
  14.0324310  63.4634570  41.5258930  13.4136730  63.1254120  40.8785230
  14.0148760  62.8194330  42.2338120  13.4750870  59.6419110  48.9424740
  13.0622050  60.4672820  49.1964730  12.7426820  59.0564150  48.7501100
   5.6083660  62.4279010  43.8043410   5.2040660  61.7156260  43.3089310
   5.6946780  62.0832250  44.6931450   6.0765360  66.1146570  45.9682620
   5.7793650  65.5092040  45.2890400   7.0265180  66.1523880  45.8571980
   4.3212280  59.2022220  47.5842450   4.8726870  59.3117560  46.8095700
   4.8355790  59.5759820  48.2997680  14.1650970  69.6878440  49.6305720
  13.6881530  70.4950630  49.4378330  13.4812760  69.0356770  49.7831930
   5.1683790  65.8528260  52.6190420   4.2712320  66.0768230  52.8663820
   5.1936660  65.9763200  51.6701820  12.2089010  62.7021380  38.5331680
  12.6482290  61.8643810  38.3869500  12.9217430  63.3350780  38.6195820
   3.9955010  62.7241580  51.1947790   3.8562780  63.5964380  51.5635190
   3.1136370  62.3814390  51.0495730  10.3184390  67.6417450  42.5012920
  10.7580300  68.3841780  42.0868310  10.2571280  67.8844020  43.4251880
   5.7935360  68.6663280  53.4032940   5.7650790  69.0706230  52.5361370
   5.6300330  67.7373640  53.2404540  15.7906150  53.9564190  36.8472720
  15.4778810  54.0491020  37.7471790  16.5518620  54.5345220  36.7970150
   2.3088290  61.3223990  41.3050060   2.1885890  62.0486080  40.6931330
   1.9989180  60.5526900  40.8277970  17.7450180  69.4490380  54.6997110
  18.2209900  69.9273270  55.3786190  18.3657340  69.3807870  53.9742610
  17.1483430  66.6403230  51.8597120  17.2746490  66.4015110  50.9414300
  17.1904810  65.8087770  52.3319200  11.0100170  70.3431230  50.4291930
  11.5244840  70.2539240  51.2314360  10.1669250  70.6890930  50.7219840
  12.9854570  70.6286570  39.8575930  12.8255710  70.3389510  40.7557760
  12.8201280  69.8526700  39.3221160   5.4642950  70.4085100  41.6347550
   5.2885430  69.4920640  41.4215350   4.6098690  70.7672390  41.8745350
  12.6880700  68.1374130  38.4173930  11.9945860  68.1351420  37.7576210
  13.4303560  67.7133450  37.9868100  12.2530630  69.7636840  42.4922420
  12.7087580  68.9826220  42.8061040  12.5923150  70.4743660  43.0363600
  17.0007440  58.6935690  52.8246860  16.3851710  59.2015360  52.2962320
  16.6803860  57.7934020  52.7672800   4.7751950  54.6659060  44.6873730
   4.3320100  55.4468600  44.3558250   5.3336940  54.9888950  45.3944670
   9.0621760  57.5327580  50.2909050   8.6001130  57.7410600  51.1028990
   8.6599870  56.7186930  49.9879720  14.0626270  58.7536530  51.4205710
  13.2119860  58.4542280  51.7414780  13.9028060  58.9978540  50.5089530
  11.1575980  60.2538280  53.5204500  11.4829390  59.4202030  53.1806730
  11.9456310  60.7766800  53.6682830   7.8910770  54.2869760  39.5679560
   7.2664950  54.2829630  40.2932870   7.8040890  53.4200720  39.1715530
   6.8127850  55.2106390  46.5463330   7.1100180  56.1169220  46.4655350
   7.3613410  54.7225170  45.9322900   4.5666170  59.7892630  42.4154980
   4.3407090  59.5729800  43.3201600   3.7858700  60.2221090  42.0700950
  11.7963930  59.7956000  41.0145630  11.1972820  60.5191800  40.8309250
  12.3443540  59.7332780  40.2322080   7.0065380  60.6878210  53.0815250
   6.9108980  59.7472940  52.9315650   7.8497360  60.9093280  52.6863320
  10.4028800  58.4319540  43.0448910  10.7958370  58.7491740  42.2317600
  10.7645650  57.5531420  43.1593430   8.7120970  57.1826850  54.3045770
   8.0219290  56.9899050  54.9391860   9.4553270  57.4661490  54.8370070
  10.9883940  61.0225290  47.1399690  10.2565060  61.5312100  47.4889790
  10.5908280  60.2055270  46.8388470   7.4261330  57.6979490  45.5452180
   7.4297390  57.2569440  44.6956720   8.3212450  58.0196820  45.6524000
   3.2763710  57.5805980  44.5046390   2.9363760  58.0581210  45.2613440
   2.5141030  57.1271100  44.1447490   7.4881480  58.6991570  38.5358940
   7.6094300  58.6578050  39.4844760   7.1029990  59.5615720  38.3805670
  11.4509850  56.4758970  46.5522630  11.4682590  56.9267620  47.3964480
  11.2025430  55.5764610  46.7656070   6.5002980  61.0092710  37.9342240
   5.9319880  60.5610960  37.3078150   7.2091980  61.3685490  37.4007390
  14.8780600  53.8891150  52.3909010  15.2026370  53.1580810  52.9166990
  14.9137110  53.5704790  51.4890000   7.7269300  61.7581270  47.2917590
   8.0939430  61.2839840  48.0378930   7.5374360  62.6322840  47.6325930
   5.5168670  60.7989910  49.6101800   5.2125740  61.6781890  49.8352160
   6.4715130  60.8589700  49.6459240   4.0450460  65.0050900  40.2068650
   3.2712720  64.4648520  40.0467370   4.7745090  64.4857510  39.8686410
  14.8038440  64.0016260  45.9995040  15.5237560  64.4971550  45.6091150
  14.6020260  63.3234150  45.3548910  10.2648380  55.3954220  40.1424430
   9.4512990  54.8967390  40.0669740  10.0710330  56.2352470  39.7260780
  10.1857240  64.0725320  51.8864040  10.1194550  63.1520990  51.6321630
   9.5562380  64.1700760  52.6008680  12.9796770  59.7673870  38.4386590
  13.8676390  60.0791100  38.2637930  12.9501860  58.8946120  38.0467170
   4.0887860  64.6731280  43.8447460   4.6066530  63.8699540  43.7904350
   3.6371880  64.6110420  44.6864290   8.9757360  65.9397560  39.1174760
   9.3173060  66.6839790  38.6218080   8.1470070  66.2528680  39.4799590
   4.7745520  62.0976890  53.6412710   4.4745660  62.2434070  52.7440530
   5.5456760  61.5382180  53.5486100  10.1173970  66.8945890  51.6367840
  10.1318510  65.9626850  51.4186750   9.4099070  66.9805650  52.2757610
  15.2511040  61.0785710  37.9066450  15.1674760  61.5099930  37.0562890
  15.9705230  61.5384060  38.3393270  16.3285180  63.5353230  50.9836420
  15.6033370  64.1282010  50.7865810  16.8560640  63.5276770  50.1849790
  16.2798290  67.9327970  40.6348580  15.6374450  67.2783590  40.9092300
  15.8928950  68.3383060  39.8589250  11.8584770  65.2613400  44.4820270
  12.2108590  64.6641530  43.8221640  10.9747100  64.9357630  44.6528520
   7.9448050  66.0211090  41.8890680   8.6319180  66.5680300  42.2698270
   7.1580470  66.5651820  41.9240290   7.2475260  63.0257120  41.5016040
   7.7038040  63.8362370  41.7276230   6.8963470  62.7080260  42.3334530
   9.5507870  68.5363460  48.7308340  10.1950090  68.7422840  49.4081760
   9.9137310  67.7751860  48.2779190   3.1487040  53.3694770  41.9738560
   3.0201670  53.3612670  42.9223480   2.3249060  53.7077860  41.6229570
  10.8239950  66.5395810  47.4485790  11.4662180  65.8388970  47.5617960
  11.3489300  67.3194250  47.2682680  14.6695670  66.8244430  37.1724930
  14.4433250  66.1074870  37.7649570  14.2791870  66.5756870  36.3346680
  12.5977570  67.3390710  50.6521850  12.9333810  67.9257400  51.3299770
  11.6777910  67.2083420  50.8819640  14.2511920  64.7416370  38.8339090
  13.9633620  65.2029060  39.6216970  15.0464090  64.2814140  39.1023310
   8.4266150  67.3882040  53.8209910   8.1063020  66.6691280  54.3655600
   7.7524510  68.0637110  53.8945970   6.4680320  68.2342490  38.7643060
   6.4590420  68.9672180  38.1487570   5.5478680  67.9874070  38.8570020
  11.6419750  57.6208200  49.1846710  12.0100570  56.8003410  49.5126280
  10.7817950  57.6810090  49.6002360  15.0081780  56.5765140  39.9934270
  14.3794940  56.6810810  39.2792500  14.5133700  56.7961920  40.7828150
   9.4539920  68.2970730  37.4268250   9.5551900  68.0934720  36.4970230
   8.5541660  68.0429010  37.6316030   6.9765810  58.8551090  41.4092150
   6.2681960  59.3237430  41.8505760   7.2610290  58.1973100  42.0437340
   8.6021740  60.2747790  49.4084680   9.1006990  60.7493610  50.0736530
   8.7444690  59.3511310  49.6154710  11.0081240  55.5801750  42.8487940
  10.8849020  55.5987880  41.8997450  11.9565800  55.6280690  42.9686340
   8.0958030  70.8157050  42.1215920   8.3499530  70.7778440  41.1995290
   7.1470510  70.6890380  42.1144170   5.1800830  57.1636170  38.7842860
   6.0291360  57.6006320  38.7183050   4.8132100  57.4756430  39.6114920
  15.8088600  56.4915750  50.2513070  15.3062200  57.2321150  50.5906880
  16.6245260  56.8799750  49.9349860  14.1010610  61.7348930  43.6974430
  13.1600750  61.7499160  43.8722120  14.4154680  60.9484890  44.1434730
   4.0792250  63.4168530  37.2578390   4.8455520  63.3049890  37.8203820
   4.1566940  62.7206500  36.6055160   2.7739010  60.8493600  37.9411280
   2.8542600  59.9021110  38.0528680   3.6658760  61.1800480  38.0471940
  16.1036190  68.9057780  45.3728690  16.2283610  69.7288950  45.8452500
  16.9701750  68.6948510  45.0252840   3.5753720  70.9988990  45.0445820
   4.3116200  70.4504450  45.3154390   3.9594640  71.8645000  44.9051810
   2.5812000  70.1835060  54.2331400   3.3824730  70.5047110  54.6466800
   2.0663820  69.8230640  54.9551310   6.6856030  70.1719300  36.8671390
   7.4784640  70.4608130  36.4153180   6.1660380  69.7411470  36.1883870
  11.4176630  66.2914930  54.1806810  10.8114790  66.3146530  53.4402560
  11.1130740  65.5597970  54.7174060  12.8477000  70.0195220  52.7916220
  13.7998750  69.9353240  52.7416460  12.7005220  70.6836930  53.4650010
  15.7386200  69.3989430  38.2908130  15.4527710  68.9854570  37.4762310
  15.5405750  70.3277140  38.1708650   7.2033430  65.3922710  36.7313740
   7.0984070  64.7775060  37.4575120   7.0357650  64.8688600  35.9476750
   7.3547750  64.0779510  52.7102970   6.5893420  64.6464510  52.6257640
   7.5363710  63.7855720  51.8171200  10.4436160  64.4542740  37.3355730
   9.8946260  64.9012040  37.9798470  11.0655420  63.9491990  37.8593400
  14.4971100  65.8084840  53.2677990  15.2380570  66.1460600  52.7645450
  13.7343780  65.9776900  52.7147760   2.3332890  60.8138110  54.0717520
   2.3738230  60.5151980  54.9802750   3.1878390  61.2145720  53.9125040
   6.1111280  63.4133660  39.2321030   6.5327700  63.2473530  40.0752420
   6.2362120  62.6033890  38.7376170   4.2738700  59.3930210  52.0392010
   3.7435160  58.9021160  51.4115350   4.9426770  59.8214410  51.5049940
   8.6238920  62.4371270  36.4798130   9.1444580  61.7220290  36.1139280
   9.2707320  63.0757140  36.7798640  13.1716760  63.8599670  51.8033200
  13.5857780  64.0144750  52.6523620  12.2367760  63.9854890  51.9658980
  13.6438930  61.1995830  53.8072350  14.2259700  60.4448150  53.7192830
  13.8200700  61.7303270  53.0303830   4.7611000  56.3592580  52.1189300
   4.6667870  55.7413330  51.3940170   4.1808390  57.0858870  51.8919210
   7.5272440  54.9165820  49.1516690   7.0789740  54.9390080  48.3062240
   6.8937640  54.5184840  49.7486990   7.9331990  63.8120150  49.7729130
   8.3520100  64.6552880  49.6005370   7.0140620  63.9492190  49.5435910
  10.2695890  61.5436330  51.1566970  10.3892100  60.9477470  51.8961810
  11.1289890  61.5806020  50.7368270  12.6083790  62.0973520  49.7329480
  12.0819010  62.6216140  49.1294620  12.9515130  62.7300910  50.3639210
   5.0070180  59.4866890  36.1779190   4.8059240  58.6234250  36.5392530
   4.8362230  59.4000250  35.2400790   5.7839410  70.1173160  50.8886860
   5.2460500  70.8419220  50.5695560   6.0373370  69.6403500  50.0984200
   7.0364660  58.0857680  52.4142790   7.6264350  57.7773530  53.1020610
   6.2184900  57.6137430  52.5702690  11.8558090  57.7023490  52.6475810
  11.1673610  57.0405030  52.5825800  12.5764110  57.2561760  53.0924270
  12.4858490  54.2975120  38.7066070  12.7660780  53.4543020  39.0625490
  11.7124220  54.5298230  39.2204820   3.8052980  56.5867510  36.1657070
   4.1078880  56.5934940  35.2576220   4.5447570  56.2365370  36.6624730
   8.6401620  71.3524370  51.1473510   8.5660320  72.2559510  51.4545880
   7.7380460  71.0336270  51.1195580   7.0237910  55.5302130  37.1513270
   6.6759910  54.8526120  36.5715720   7.2250680  55.0691640  37.9656660
   9.1886950  70.5182880  38.7699870  10.0837740  70.8567850  38.7918630
   9.2204580  69.7962290  38.1424150   2.8283110  65.8909930  36.9986870
   3.2657980  66.4339600  37.6544450   3.3130840  65.0656880  37.0083210
   4.6390830  67.0107970  42.1109100   4.3386370  66.8872940  43.0113010
   4.5328320  66.1516560  41.7024830  16.1681300  69.0486550  51.4766070
  15.5683290  69.1079110  50.7329990  16.2975200  68.1091530  51.6062920
  17.4082750  66.7904370  36.8135780  16.5775710  66.8581020  37.2843010
  17.5854580  67.6808490  36.5102640  16.8639210  63.5351850  39.3169980
  17.6258120  64.1048500  39.4229670  16.8793580  62.9679050  40.0878290
  17.8699180  64.3901950  44.1611910  18.2408010  63.6069270  43.7547880
  18.5101110  65.0791050  43.9829210  14.8532940  65.7738530  49.5742230
  14.0392780  66.2035690  49.8368020  15.2607140  66.3856940  48.9611280
  16.9158380  63.8286220  36.4742500  17.1907220  64.7365100  36.3461720
  16.7269120  63.7648750  37.4104490  13.3133990  56.8531070  37.7696130
  13.7318870  56.6662050  36.9292790  13.0070050  56.0010120  38.0799060
  16.8123720  61.7655210  41.4671930  16.4367320  60.9983140  41.0353220
  16.0826840  62.1477910  41.9546860  16.2023340  60.9126730  51.1011450
  15.9709430  60.6839480  50.2009400  16.4627890  61.8326280  51.0556340
  14.6411410  56.1383160  53.8791150  15.5181590  56.1466560  54.2625150
  14.6532250  55.4014000  53.2683500  16.0874680  59.9912700  44.7679170
  16.6112160  59.4975350  44.1369340  16.6734100  60.1263060  45.5126740
  16.2664400  60.0752570  48.2898720  15.3167110  60.0416110  48.4043710
  16.4477410  60.9852680  48.0548490   1.7683000  54.3793580  36.4400000
   2.4911130  54.9202520  36.7581220   2.0407520  54.1057000  35.5641540
  15.5774650  59.2486050  40.7071580  16.0733770  59.0156920  41.4920460
  15.3790720  58.4097890  40.2909220  17.0061810  57.8847000  43.2409260
  16.8961090  57.7303040  44.1791530  17.7669400  57.3567940  42.9984670
  15.3527530  53.8241130  49.6992260  15.9899750  54.4375270  50.0651450
  15.5002420  53.8601790  48.7541490  17.8952080  55.7154920  36.4815400
  18.8201390  55.5836100  36.2733690  17.8727870  55.7947740  37.4351850
  17.9690570  56.4865580  39.1072110  17.1742070  56.4210700  39.6365020
  18.1733850  57.4216220  39.0957460  14.9108990  70.5257130  43.1010500
  15.5068060  70.2041700  42.4244920  15.1687140  70.0528950  43.8923770
   2.8171560  66.9575040  53.2501130   2.7741190  66.5867950  54.1315590
   2.9482570  67.8952610  53.3902950   6.5177590  68.5134630  48.8510850
   6.2768950  68.7809190  47.9641370   7.4580230  68.6840360  48.9061710
   8.7232010  54.9767320  52.6067360   8.6620900  55.5689150  53.3562770
   9.6632390  54.8693280  52.4617620  11.3606570  54.6337380  52.2459650
  11.9746980  54.9516670  51.5840730  11.9056130  54.1485970  52.8655510
  17.7781750  70.5329010  49.6521490  17.2840030  70.9297880  48.9348620
  17.1695040  69.9078220  50.0458770   1.8827830  53.3131640  52.3598710
   2.4310820  53.1319690  51.5964820   1.9483140  52.5225750  52.8955020
   2.6559590  69.9037290  50.3698910   2.0619910  69.7721990  51.1088950
   2.6483430  69.0675430  49.9041010  12.1014610  53.1969520  48.5728940
  11.2274450  53.5304630  48.3701870  11.9925360  52.7242700  49.3980810
  13.0086590  55.4040390  49.9570660  12.6799950  54.5892150  49.5772390
  13.9568890  55.3610200  49.8336350  15.4621200  71.1752430  46.9308230
  15.0024170  71.9268240  46.5566250  14.8333660  70.4558900  46.8723030
   5.8916920  69.4840670  46.1056360   6.4081940  68.8728030  45.5804620
   6.5414300  69.9869450  46.5967370   8.6312420  70.3749160  46.9325340
   8.9190230  70.1203460  46.0558350   9.1435640  69.8226520  47.5230910
   9.8489430  54.1139360  47.5121850   9.0661220  54.5884860  47.7918610
   9.5552360  53.2094190  47.4035030  14.4010500  54.8162460  45.5570940
  14.8418590  54.7607560  44.7092540  14.1318090  55.7320470  45.6281120
  16.2649070  54.4477700  43.5679760  16.2037470  53.5038920  43.4210780
  17.0441100  54.5557790  44.1133220   7.7343650  56.5326110  43.0237880
   6.9218160  56.1583000  42.6833760   8.2385290  55.7771190  43.3259070
  12.2368630  53.1968560  44.2620950  12.8398000  53.7688770  44.7369470
  11.4961620  53.7608000  44.0394850  15.3803230  53.5990120  39.5361230
  15.5753860  54.4973570  39.8028660  14.5933100  53.3677200  40.0294180
   2.1764520  69.2803290  39.9753850   1.6512140  69.6611320  39.2715810
   2.1009100  69.9054060  40.6963560   3.5654990  54.9450890  38.5737540
   4.0947750  54.1580690  38.4445490   4.1983310  55.6242080  38.8073070
   5.7592830  54.6826030  41.6282930   5.1295570  53.9813340  41.7953060
   5.2197970  55.4430160  41.4116090   8.6984780  71.2965260  54.2993540
   9.6252090  71.0609530  54.3429500   8.6835210  72.1237260  53.8179570
  16.9329840  70.8390830  41.2967790  17.1082030  70.1528570  40.6528710
  16.2351410  71.3637880  40.9044460   5.8848390  53.9610010  54.0635420
   5.6032660  54.4643610  53.2996240   6.2668090  53.1631760  53.6977550
   4.7757490  71.2285670  38.8503100   5.5076310  70.9444950  38.3026990
   5.0351160  70.9898950  39.7402480   3.9372280  67.3450400  38.8549430
   3.3081160  67.8135500  39.4035260   4.0520110  66.4999620  39.2895620
  12.4863850  53.3763590  54.6415890  12.3729300  53.6958200  55.5367410
  13.3033590  53.7776100  54.3453170  15.2662340  70.5235120  54.1234580
  16.0587660  70.0284350  53.9160540  15.5595490  71.2025260  54.7310190
  11.3922000  61.3956060  25.0050630  11.3116050  60.4810670  24.7342340
  10.9786420  61.8923130  24.2990340   9.5240040  63.1735080  26.8859900
   8.7482140  62.6935520  27.1758470  10.1752970  62.4940730  26.7116060
   3.5405870  63.4854890  27.7635660   2.7090750  63.2303600  28.1632170
   4.1486850  63.5565660  28.4993580  13.5447470  67.5795270  25.6659030
  13.0829000  66.8082510  25.9946200  14.3573020  67.6061340  26.1711480
   3.5207130  67.5194980  27.9593680   3.8235170  66.6292720  27.7803900
   4.2650720  68.0765200  27.7315930   9.7710780  69.8653280  25.2863020
   9.1522220  70.3210780  24.7157460  10.6262560  70.0204740  24.8852720
   8.9649030  65.8492270  26.8930060   8.8957310  64.9082210  26.7319190
   9.7268890  65.9393680  27.4652630   9.9954200  58.6562650  27.1198990
  10.3719020  57.7834530  27.0072660   9.8973710  58.9921350  26.2289430
   4.1259210  57.0288280  22.5816430   4.2325960  57.9292010  22.8885190
   3.2151570  56.9806250  22.2911080  13.7778320  56.1513090  24.0527330
  14.5987940  55.6609660  24.0952810  13.8112400  56.7410750  24.8059170
   5.9666940  59.9974650  26.9141610   6.4745160  60.4955620  27.5546630
   6.4980180  59.2209850  26.7380970  18.0677870  58.1679840  30.6170960
  17.3630040  58.5561550  30.0986070  18.3335790  58.8630130  31.2191890
   4.2503040  54.6373210  31.1805030   4.2521480  55.1545600  30.3750930
   3.4207350  54.1603390  31.1574960  10.6374130  64.7492520  22.6794930
  10.0191400  65.2141970  22.1157650  11.1497380  65.4420000  23.0964440
   5.5005890  64.2768390  29.3578530   5.1675270  64.9037310  29.9999600
   5.6772570  64.8030270  28.5780200  14.0139800  58.0913470  26.8254870
  13.3095370  58.3798360  27.4057980  14.3751960  58.9013580  26.4654430
   3.9318370  56.3483170  29.1875480   4.2735180  57.1925220  28.8929350
   2.9934180  56.4966910  29.3040820   4.7124990  66.2449190  31.1727710
   5.3298990  66.9200270  30.8912160   3.8518110  66.6537170  31.0815210
  15.6302580  67.7088600  29.0882350  14.9466100  68.3787710  29.0799020
  16.1696870  67.9069250  28.3227210  17.0826720  57.5368260  27.2164080
  16.1351630  57.5707240  27.3479510  17.4076710  58.3507210  27.6013440
   7.6146260  53.8365440  25.5120070   7.9221240  53.2812330  24.7955570
   6.6846960  53.9709900  25.3293060  13.1661320  69.5532730  27.8027530
  13.1788480  69.1495020  26.9349790  12.6136540  70.3280020  27.6988960
  14.4606740  66.2748950  22.8917700  14.3503070  65.3323280  23.0167120
  14.4574990  66.6364590  23.7780460  12.5646760  64.4562570  29.1310140
  12.9815550  64.2422680  28.2963600  13.2886580  64.7135360  29.7018760
  10.0027020  61.9014270  22.2480190   9.0756300  61.8351650  22.4768660
  10.1551840  62.8394400  22.1335430   9.9896100  58.1731270  19.2447350
   9.0499770  58.3345230  19.3299810  10.3079360  58.8916950  18.6983340
  16.5108860  62.8549790  29.2226380  15.6827490  62.9242880  28.7476510
  17.1059340  63.4404100  28.7542210  14.0324310  63.4634570  22.7515440
  13.4136730  63.1254120  22.1041740  14.0148760  62.8194330  23.4594630
  13.4750870  59.6419110  30.1681250  13.0622050  60.4672820  30.4221240
  12.7426820  59.0564150  29.9757610   5.6083660  62.4279010  25.0299920
   5.2040660  61.7156260  24.5345820   5.6946780  62.0832250  25.9187960
   6.0765360  66.1146570  27.1939130   5.7793650  65.5092040  26.5146910
   7.0265180  66.1523880  27.0828490   4.3212280  59.2022220  28.8098960
   4.8726870  59.3117560  28.0352210   4.8355790  59.5759820  29.5254190
  14.1650970  69.6878440  30.8562230  13.6881530  70.4950630  30.6634840
  13.4812760  69.0356770  31.0088440   5.1683790  65.8528260  33.8446930
   4.2712320  66.0768230  34.0920330   5.1936660  65.9763200  32.8958330
  12.2089010  62.7021380  19.7588190  12.6482290  61.8643810  19.6126010
  12.9217430  63.3350780  19.8452330   3.9955010  62.7241580  32.4204300
   3.8562780  63.5964380  32.7891700   3.1136370  62.3814390  32.2752240
  10.3184390  67.6417450  23.7269430  10.7580300  68.3841780  23.3124820
  10.2571280  67.8844020  24.6508390   5.7935360  68.6663280  34.6289450
   5.7650790  69.0706230  33.7617880   5.6300330  67.7373640  34.4661050
  15.7906150  53.9564190  18.0729230  15.4778810  54.0491020  18.9728300
  16.5518620  54.5345220  18.0226660   2.3088290  61.3223990  22.5306570
   2.1885890  62.0486080  21.9187840   1.9989180  60.5526900  22.0534480
  17.7450180  69.4490380  35.9253620  18.2209900  69.9273270  36.6042700
  18.3657340  69.3807870  35.1999120  17.1483430  66.6403230  33.0853630
  17.2746490  66.4015110  32.1670810  17.1904810  65.8087770  33.5575710
  11.0100170  70.3431230  31.6548440  11.5244840  70.2539240  32.4570870
  10.1669250  70.6890930  31.9476350  12.9854570  70.6286570  21.0832440
  12.8255710  70.3389510  21.9814270  12.8201280  69.8526700  20.5477670
   5.4642950  70.4085100  22.8604060   5.2885430  69.4920640  22.6471860
   4.6098690  70.7672390  23.1001860  12.6880700  68.1374130  19.6430440
  11.9945860  68.1351420  18.9832720  13.4303560  67.7133450  19.2124610
  12.2530630  69.7636840  23.7178930  12.7087580  68.9826220  24.0317550
  12.5923150  70.4743660  24.2620110  17.0007440  58.6935690  34.0503370
  16.3851710  59.2015360  33.5218830  16.6803860  57.7934020  33.9929310
   4.7751950  54.6659060  25.9130240   4.3320100  55.4468600  25.5814760
   5.3336940  54.9888950  26.6201180   9.0621760  57.5327580  31.5165560
   8.6001130  57.7410600  32.3285500   8.6599870  56.7186930  31.2136230
  14.0626270  58.7536530  32.6462220  13.2119860  58.4542280  32.9671290
  13.9028060  58.9978540  31.7346040  11.1575980  60.2538280  34.7461010
  11.4829390  59.4202030  34.4063240  11.9456310  60.7766800  34.8939340
   7.8910770  54.2869760  20.7936070   7.2664950  54.2829630  21.5189380
   7.8040890  53.4200720  20.3972040   6.8127850  55.2106390  27.7719840
   7.1100180  56.1169220  27.6911860   7.3613410  54.7225170  27.1579410
   4.5666170  59.7892630  23.6411490   4.3407090  59.5729800  24.5458110
   3.7858700  60.2221090  23.2957460  11.7963930  59.7956000  22.2402140
  11.1972820  60.5191800  22.0565760  12.3443540  59.7332780  21.4578590
   7.0065380  60.6878210  34.3071760   6.9108980  59.7472940  34.1572160
   7.8497360  60.9093280  33.9119830  10.4028800  58.4319540  24.2705420
  10.7958370  58.7491740  23.4574110  10.7645650  57.5531420  24.3849940
   8.7120970  57.1826850  35.5302280   8.0219290  56.9899050  36.1648370
   9.4553270  57.4661490  36.0626580  10.9883940  61.0225290  28.3656200
  10.2565060  61.5312100  28.7146300  10.5908280  60.2055270  28.0644980
   7.4261330  57.6979490  26.7708690   7.4297390  57.2569440  25.9213230
   8.3212450  58.0196820  26.8780510   3.2763710  57.5805980  25.7302900
   2.9363760  58.0581210  26.4869950   2.5141030  57.1271100  25.3704000
   7.4881480  58.6991570  19.7615450   7.6094300  58.6578050  20.7101270
   7.1029990  59.5615720  19.6062180  11.4509850  56.4758970  27.7779140
  11.4682590  56.9267620  28.6220990  11.2025430  55.5764610  27.9912580
   6.5002980  61.0092710  19.1598750   5.9319880  60.5610960  18.5334660
   7.2091980  61.3685490  18.6263900  14.8780600  53.8891150  33.6165520
  15.2026370  53.1580810  34.1423500  14.9137110  53.5704790  32.7146510
   7.7269300  61.7581270  28.5174100   8.0939430  61.2839840  29.2635440
   7.5374360  62.6322840  28.8582440   5.5168670  60.7989910  30.8358310
   5.2125740  61.6781890  31.0608670   6.4715130  60.8589700  30.8715750
   4.0450460  65.0050900  21.4325160   3.2712720  64.4648520  21.2723880
   4.7745090  64.4857510  21.0942920  14.8038440  64.0016260  27.2251550
  15.5237560  64.4971550  26.8347660  14.6020260  63.3234150  26.5805420
  10.2648380  55.3954220  21.3680940   9.4512990  54.8967390  21.2926250
  10.0710330  56.2352470  20.9517290  10.1857240  64.0725320  33.1120550
  10.1194550  63.1520990  32.8578140   9.5562380  64.1700760  33.8265190
  12.9796770  59.7673870  19.6643100  13.8676390  60.0791100  19.4894440
  12.9501860  58.8946120  19.2723680   4.0887860  64.6731280  25.0703970
   4.6066530  63.8699540  25.0160860   3.6371880  64.6110420  25.9120800
   8.9757360  65.9397560  20.3431270   9.3173060  66.6839790  19.8474590
   8.1470070  66.2528680  20.7056100   4.7745520  62.0976890  34.8669220
   4.4745660  62.2434070  33.9697040   5.5456760  61.5382180  34.7742610
  10.1173970  66.8945890  32.8624350  10.1318510  65.9626850  32.6443260
   9.4099070  66.9805650  33.5014120  15.2511040  61.0785710  19.1322960
  15.1674760  61.5099930  18.2819400  15.9705230  61.5384060  19.5649780
  16.3285180  63.5353230  32.2092930  15.6033370  64.1282010  32.0122320
  16.8560640  63.5276770  31.4106300  16.2798290  67.9327970  21.8605090
  15.6374450  67.2783590  22.1348810  15.8928950  68.3383060  21.0845760
  11.8584770  65.2613400  25.7076780  12.2108590  64.6641530  25.0478150
  10.9747100  64.9357630  25.8785030   7.9448050  66.0211090  23.1147190
   8.6319180  66.5680300  23.4954780   7.1580470  66.5651820  23.1496800
   7.2475260  63.0257120  22.7272550   7.7038040  63.8362370  22.9532740
   6.8963470  62.7080260  23.5591040   9.5507870  68.5363460  29.9564850
  10.1950090  68.7422840  30.6338270   9.9137310  67.7751860  29.5035700
   3.1487040  53.3694770  23.1995070   3.0201670  53.3612670  24.1479990
   2.3249060  53.7077860  22.8486080  10.8239950  66.5395810  28.6742300
  11.4662180  65.8388970  28.7874470  11.3489300  67.3194250  28.4939190
  14.6695670  66.8244430  18.3981440  14.4433250  66.1074870  18.9906080
  14.2791870  66.5756870  17.5603190  12.5977570  67.3390710  31.8778360
  12.9333810  67.9257400  32.5556280  11.6777910  67.2083420  32.1076150
  14.2511920  64.7416370  20.0595600  13.9633620  65.2029060  20.8473480
  15.0464090  64.2814140  20.3279820   8.4266150  67.3882040  35.0466420
   8.1063020  66.6691280  35.5912110   7.7524510  68.0637110  35.1202480
   6.4680320  68.2342490  19.9899570   6.4590420  68.9672180  19.3744080
   5.5478680  67.9874070  20.0826530  11.6419750  57.6208200  30.4103220
  12.0100570  56.8003410  30.7382790  10.7817950  57.6810090  30.8258870
  15.0081780  56.5765140  21.2190780  14.3794940  56.6810810  20.5049010
  14.5133700  56.7961920  22.0084660   9.4539920  68.2970730  18.6524760
   9.5551900  68.0934720  17.7226740   8.5541660  68.0429010  18.8572540
   6.9765810  58.8551090  22.6348660   6.2681960  59.3237430  23.0762270
   7.2610290  58.1973100  23.2693850   8.6021740  60.2747790  30.6341190
   9.1006990  60.7493610  31.2993040   8.7444690  59.3511310  30.8411220
  11.0081240  55.5801750  24.0744450  10.8849020  55.5987880  23.1253960
  11.9565800  55.6280690  24.1942850   8.0958030  70.8157050  23.3472430
   8.3499530  70.7778440  22.4251800   7.1470510  70.6890380  23.3400680
   5.1800830  57.1636170  20.0099370   6.0291360  57.6006320  19.9439560
   4.8132100  57.4756430  20.8371430  15.8088600  56.4915750  31.4769580
  15.3062200  57.2321150  31.8163390  16.6245260  56.8799750  31.1606370
  14.1010610  61.7348930  24.9230940  13.1600750  61.7499160  25.0978630
  14.4154680  60.9484890  25.3691240   4.0792250  63.4168530  18.4834900
   4.8455520  63.3049890  19.0460330   4.1566940  62.7206500  17.8311670
   2.7739010  60.8493600  19.1667790   2.8542600  59.9021110  19.2785190
   3.6658760  61.1800480  19.2728450  16.1036190  68.9057780  26.5985200
  16.2283610  69.7288950  27.0709010  16.9701750  68.6948510  26.2509350
   3.5753720  70.9988990  26.2702330   4.3116200  70.4504450  26.5410900
   3.9594640  71.8645000  26.1308320   2.5812000  70.1835060  35.4587910
   3.3824730  70.5047110  35.8723310   2.0663820  69.8230640  36.1807820
   6.6856030  70.1719300  18.0927900   7.4784640  70.4608130  17.6409690
   6.1660380  69.7411470  17.4140380  11.4176630  66.2914930  35.4063320
  10.8114790  66.3146530  34.6659070  11.1130740  65.5597970  35.9430570
  12.8477000  70.0195220  34.0172730  13.7998750  69.9353240  33.9672970
  12.7005220  70.6836930  34.6906520  15.7386200  69.3989430  19.5164640
  15.4527710  68.9854570  18.7018820  15.5405750  70.3277140  19.3965160
   7.2033430  65.3922710  17.9570250   7.0984070  64.7775060  18.6831630
   7.0357650  64.8688600  17.1733260   7.3547750  64.0779510  33.9359480
   6.5893420  64.6464510  33.8514150   7.5363710  63.7855720  33.0427710
  10.4436160  64.4542740  18.5612240   9.8946260  64.9012040  19.2054980
  11.0655420  63.9491990  19.0849910  14.4971100  65.8084840  34.4934500
  15.2380570  66.1460600  33.9901960  13.7343780  65.9776900  33.9404270
   2.3332890  60.8138110  35.2974030   2.3738230  60.5151980  36.2059260
   3.1878390  61.2145720  35.1381550   6.1111280  63.4133660  20.4577540
   6.5327700  63.2473530  21.3008930   6.2362120  62.6033890  19.9632680
   4.2738700  59.3930210  33.2648520   3.7435160  58.9021160  32.6371860
   4.9426770  59.8214410  32.7306450   8.6238920  62.4371270  17.7054640
   9.1444580  61.7220290  17.3395790   9.2707320  63.0757140  18.0055150
  13.1716760  63.8599670  33.0289710  13.5857780  64.0144750  33.8780130
  12.2367760  63.9854890  33.1915490  13.6438930  61.1995830  35.0328860
  14.2259700  60.4448150  34.9449340  13.8200700  61.7303270  34.2560340
   4.7611000  56.3592580  33.3445810   4.6667870  55.7413330  32.6196680
   4.1808390  57.0858870  33.1175720   7.5272440  54.9165820  30.3773200
   7.0789740  54.9390080  29.5318750   6.8937640  54.5184840  30.9743500
   7.9331990  63.8120150  30.9985640   8.3520100  64.6552880  30.8261880
   7.0140620  63.9492190  30.7692420  10.2695890  61.5436330  32.3823480
  10.3892100  60.9477470  33.1218320  11.1289890  61.5806020  31.9624780
  12.6083790  62.0973520  30.9585990  12.0819010  62.6216140  30.3551130
  12.9515130  62.7300910  31.5895720   5.0070180  59.4866890  17.4035700
   4.8059240  58.6234250  17.7649040   4.8362230  59.4000250  16.4657300
   5.7839410  70.1173160  32.1143370   5.2460500  70.8419220  31.7952070
   6.0373370  69.6403500  31.3240710   7.0364660  58.0857680  33.6399300
   7.6264350  57.7773530  34.3277120   6.2184900  57.6137430  33.7959200
  11.8558090  57.7023490  33.8732320  11.1673610  57.0405030  33.8082310
  12.5764110  57.2561760  34.3180780  12.4858490  54.2975120  19.9322580
  12.7660780  53.4543020  20.2882000  11.7124220  54.5298230  20.4461330
   3.8052980  56.5867510  17.3913580   4.1078880  56.5934940  16.4832730
   4.5447570  56.2365370  17.8881240   8.6401620  71.3524370  32.3730020
   8.5660320  72.2559510  32.6802390   7.7380460  71.0336270  32.3452090
   7.0237910  55.5302130  18.3769780   6.6759910  54.8526120  17.7972230
   7.2250680  55.0691640  19.1913170   9.1886950  70.5182880  19.9956380
  10.0837740  70.8567850  20.0175140   9.2204580  69.7962290  19.3680660
   2.8283110  65.8909930  18.2243380   3.2657980  66.4339600  18.8800960
   3.3130840  65.0656880  18.2339720   4.6390830  67.0107970  23.3365610
   4.3386370  66.8872940  24.2369520   4.5328320  66.1516560  22.9281340
  16.1681300  69.0486550  32.7022580  15.5683290  69.1079110  31.9586500
  16.2975200  68.1091530  32.8319430  17.4082750  66.7904370  18.0392290
  16.5775710  66.8581020  18.5099520  17.5854580  67.6808490  17.7359150
  16.8639210  63.5351850  20.5426490  17.6258120  64.1048500  20.6486180
  16.8793580  62.9679050  21.3134800  17.8699180  64.3901950  25.3868420
  18.2408010  63.6069270  24.9804390  18.5101110  65.0791050  25.2085720
  14.8532940  65.7738530  30.7998740  14.0392780  66.2035690  31.0624530
  15.2607140  66.3856940  30.1867790  16.9158380  63.8286220  17.6999010
  17.1907220  64.7365100  17.5718230  16.7269120  63.7648750  18.6361000
  13.3133990  56.8531070  18.9952640  13.7318870  56.6662050  18.1549300
  13.0070050  56.0010120  19.3055570  16.8123720  61.7655210  22.6928440
  16.4367320  60.9983140  22.2609730  16.0826840  62.1477910  23.1803370
  16.2023340  60.9126730  32.3267960  15.9709430  60.6839480  31.4265910
  16.4627890  61.8326280  32.2812850  14.6411410  56.1383160  35.1047660
  15.5181590  56.1466560  35.4881660  14.6532250  55.4014000  34.4940010
  16.0874680  59.9912700  25.9935680  16.6112160  59.4975350  25.3625850
  16.6734100  60.1263060  26.7383250  16.2664400  60.0752570  29.5155230
  15.3167110  60.0416110  29.6300220  16.4477410  60.9852680  29.2805000
   1.7683000  54.3793580  17.6656510   2.4911130  54.9202520  17.9837730
   2.0407520  54.1057000  16.7898050  15.5774650  59.2486050  21.9328090
  16.0733770  59.0156920  22.7176970  15.3790720  58.4097890  21.5165730
  17.0061810  57.8847000  24.4665770  16.8961090  57.7303040  25.4048040
  17.7669400  57.3567940  24.2241180  15.3527530  53.8241130  30.9248770
  15.9899750  54.4375270  31.2907960  15.5002420  53.8601790  29.9798000
  17.8952080  55.7154920  17.7071910  18.8201390  55.5836100  17.4990200
  17.8727870  55.7947740  18.6608360  17.9690570  56.4865580  20.3328620
  17.1742070  56.4210700  20.8621530  18.1733850  57.4216220  20.3213970
  14.9108990  70.5257130  24.3267010  15.5068060  70.2041700  23.6501430
  15.1687140  70.0528950  25.1180280   2.8171560  66.9575040  34.4757640
   2.7741190  66.5867950  35.3572100   2.9482570  67.8952610  34.6159460
   6.5177590  68.5134630  30.0767360   6.2768950  68.7809190  29.1897880
   7.4580230  68.6840360  30.1318220   8.7232010  54.9767320  33.8323870
   8.6620900  55.5689150  34.5819280   9.6632390  54.8693280  33.6874130
  11.3606570  54.6337380  33.4716160  11.9746980  54.9516670  32.8097240
  11.9056130  54.1485970  34.0912020  17.7781750  70.5329010  30.8778000
  17.2840030  70.9297880  30.1605130  17.1695040  69.9078220  31.2715280
   1.8827830  53.3131640  33.5855220   2.4310820  53.1319690  32.8221330
   1.9483140  52.5225750  34.1211530   2.6559590  69.9037290  31.5955420
   2.0619910  69.7721990  32.3345460   2.6483430  69.0675430  31.1297520
  12.1014610  53.1969520  29.7985450  11.2274450  53.5304630  29.5958380
  11.9925360  52.7242700  30.6237320  13.0086590  55.4040390  31.1827170
  12.6799950  54.5892150  30.8028900  13.9568890  55.3610200  31.0592860
  15.4621200  71.1752430  28.1564740  15.0024170  71.9268240  27.7822760
  14.8333660  70.4558900  28.0979540   5.8916920  69.4840670  27.3312870
   6.4081940  68.8728030  26.8061130   6.5414300  69.9869450  27.8223880
   8.6312420  70.3749160  28.1581850   8.9190230  70.1203460  27.2814860
   9.1435640  69.8226520  28.7487420   9.8489430  54.1139360  28.7378360
   9.0661220  54.5884860  29.0175120   9.5552360  53.2094190  28.6291540
  14.4010500  54.8162460  26.7827450  14.8418590  54.7607560  25.9349050
  14.1318090  55.7320470  26.8537630  16.2649070  54.4477700  24.7936270
  16.2037470  53.5038920  24.6467290  17.0441100  54.5557790  25.3389730
   7.7343650  56.5326110  24.2494390   6.9218160  56.1583000  23.9090270
   8.2385290  55.7771190  24.5515580  12.2368630  53.1968560  25.4877460
  12.8398000  53.7688770  25.9625980  11.4961620  53.7608000  25.2651360
  15.3803230  53.5990120  20.7617740  15.5753860  54.4973570  21.0285170
  14.5933100  53.3677200  21.2550690   2.1764520  69.2803290  21.2010360
   1.6512140  69.6611320  20.4972320   2.1009100  69.9054060  21.9220070
   3.5654990  54.9450890  19.7994050   4.0947750  54.1580690  19.6702000
   4.1983310  55.6242080  20.0329580   5.7592830  54.6826030  22.8539440
   5.1295570  53.9813340  23.0209570   5.2197970  55.4430160  22.6372600
   8.6984780  71.2965260  35.5250050   9.6252090  71.0609530  35.5686010
   8.6835210  72.1237260  35.0436080  16.9329840  70.8390830  22.5224300
  17.1082030  70.1528570  21.8785220  16.2351410  71.3637880  22.1300970
   5.8848390  53.9610010  35.2891930   5.6032660  54.4643610  34.5252750
   6.2668090  53.1631760  34.9234060   4.7757490  71.2285670  20.0759610
   5.5076310  70.9444950  19.5283500   5.0351160  70.9898950  20.9658990
   3.9372280  67.3450400  20.0805940   3.3081160  67.8135500  20.6291770
   4.0520110  66.4999620  20.5152130  12.4863850  53.3763590  35.8672400
  12.3729300  53.6958200  36.7623920  13.3033590  53.7776100  35.5709680
  15.2662340  70.5235120  35.3491090  16.0587660  70.0284350  35.1417050
  15.5595490  71.2025260  35.9566700  11.3922000  61.3956060   6.2307140
  11.3116050  60.4810670   5.9598850  10.9786420  61.8923130   5.5246850
   9.5240040  63.1735080   8.1116410   8.7482140  62.6935520   8.4014980
  10.1752970  62.4940730   7.9372570   3.5405870  63.4854890   8.9892170
   2.7090750  63.2303600   9.3888680   4.1486850  63.5565660   9.7250090
  13.5447470  67.5795270   6.8915540  13.0829000  66.8082510   7.2202710
  14.3573020  67.6061340   7.3967990   3.5207130  67.5194980   9.1850190
   3.8235170  66.6292720   9.0060410   4.2650720  68.0765200   8.9572440
   9.7710780  69.8653280   6.5119530   9.1522220  70.3210780   5.9413970
  10.6262560  70.0204740   6.1109230   8.9649030  65.8492270   8.1186570
   8.8957310  64.9082210   7.9575700   9.7268890  65.9393680   8.6909140
   9.9954200  58.6562650   8.3455500  10.3719020  57.7834530   8.2329170
   9.8973710  58.9921350   7.4545940   4.1259210  57.0288280   3.8072940
   4.2325960  57.9292010   4.1141700   3.2151570  56.9806250   3.5167590
  13.7778320  56.1513090   5.2783840  14.5987940  55.6609660   5.3209320
  13.8112400  56.7410750   6.0315680   5.9666940  59.9974650   8.1398120
   6.4745160  60.4955620   8.7803140   6.4980180  59.2209850   7.9637480
  18.0677870  58.1679840  11.8427470  17.3630040  58.5561550  11.3242580
  18.3335790  58.8630130  12.4448400   4.2503040  54.6373210  12.4061540
   4.2521480  55.1545600  11.6007440   3.4207350  54.1603390  12.3831470
  10.6374130  64.7492520   3.9051440  10.0191400  65.2141970   3.3414160
  11.1497380  65.4420000   4.3220950   5.5005890  64.2768390  10.5835040
   5.1675270  64.9037310  11.2256110   5.6772570  64.8030270   9.8036710
  14.0139800  58.0913470   8.0511380  13.3095370  58.3798360   8.6314490
  14.3751960  58.9013580   7.6910940   3.9318370  56.3483170  10.4131990
   4.2735180  57.1925220  10.1185860   2.9934180  56.4966910  10.5297330
   4.7124990  66.2449190  12.3984220   5.3298990  66.9200270  12.1168670
   3.8518110  66.6537170  12.3071720  15.6302580  67.7088600  10.3138860
  14.9466100  68.3787710  10.3055530  16.1696870  67.9069250   9.5483720
  17.0826720  57.5368260   8.4420590  16.1351630  57.5707240   8.5736020
  17.4076710  58.3507210   8.8269950   7.6146260  53.8365440   6.7376580
   7.9221240  53.2812330   6.0212080   6.6846960  53.9709900   6.5549570
  13.1661320  69.5532730   9.0284040  13.1788480  69.1495020   8.1606300
  12.6136540  70.3280020   8.9245470  14.4606740  66.2748950   4.1174210
  14.3503070  65.3323280   4.2423630  14.4574990  66.6364590   5.0036970
  12.5646760  64.4562570  10.3566650  12.9815550  64.2422680   9.5220110
  13.2886580  64.7135360  10.9275270  10.0027020  61.9014270   3.4736700
   9.0756300  61.8351650   3.7025170  10.1551840  62.8394400   3.3591940
  16.5108860  62.8549790  10.4482890  15.6827490  62.9242880   9.9733020
  17.1059340  63.4404100   9.9798720  14.0324310  63.4634570   3.9771950
  13.4136730  63.1254120   3.3298250  14.0148760  62.8194330   4.6851140
  13.4750870  59.6419110  11.3937760  13.0622050  60.4672820  11.6477750
  12.7426820  59.0564150  11.2014120   5.6083660  62.4279010   6.2556430
   5.2040660  61.7156260   5.7602330   5.6946780  62.0832250   7.1444470
   6.0765360  66.1146570   8.4195640   5.7793650  65.5092040   7.7403420
   7.0265180  66.1523880   8.3085000   4.3212280  59.2022220  10.0355470
   4.8726870  59.3117560   9.2608720   4.8355790  59.5759820  10.7510700
  14.1650970  69.6878440  12.0818740  13.6881530  70.4950630  11.8891350
  13.4812760  69.0356770  12.2344950   5.1683790  65.8528260  15.0703440
   4.2712320  66.0768230  15.3176840   5.1936660  65.9763200  14.1214840
   3.9955010  62.7241580  13.6460810   3.8562780  63.5964380  14.0148210
   3.1136370  62.3814390  13.5008750  10.3184390  67.6417450   4.9525940
  10.7580300  68.3841780   4.5381330  10.2571280  67.8844020   5.8764900
   5.7935360  68.6663280  15.8545960   5.7650790  69.0706230  14.9874390
   5.6300330  67.7373640  15.6917560   2.3088290  61.3223990   3.7563080
   2.1885890  62.0486080   3.1444350   1.9989180  60.5526900   3.2790990
  17.7450180  69.4490380  17.1510130  18.2209900  69.9273270  17.8299210
  18.3657340  69.3807870  16.4255630  17.1483430  66.6403230  14.3110140
  17.2746490  66.4015110  13.3927320  17.1904810  65.8087770  14.7832220
  11.0100170  70.3431230  12.8804950  11.5244840  70.2539240  13.6827380
  10.1669250  70.6890930  13.1732860  12.9854570  70.6286570   2.3088950
  12.8255710  70.3389510   3.2070780  12.8201280  69.8526700   1.7734180
   5.4642950  70.4085100   4.0860570   5.2885430  69.4920640   3.8728370
   4.6098690  70.7672390   4.3258370  12.2530630  69.7636840   4.9435440
  12.7087580  68.9826220   5.2574060  12.5923150  70.4743660   5.4876620
  17.0007440  58.6935690  15.2759880  16.3851710  59.2015360  14.7475340
  16.6803860  57.7934020  15.2185820   4.7751950  54.6659060   7.1386750
   4.3320100  55.4468600   6.8071270   5.3336940  54.9888950   7.8457690
   9.0621760  57.5327580  12.7422070   8.6001130  57.7410600  13.5542010
   8.6599870  56.7186930  12.4392740  14.0626270  58.7536530  13.8718730
  13.2119860  58.4542280  14.1927800  13.9028060  58.9978540  12.9602550
  11.1575980  60.2538280  15.9717520  11.4829390  59.4202030  15.6319750
  11.9456310  60.7766800  16.1195850   6.8127850  55.2106390   8.9976350
   7.1100180  56.1169220   8.9168370   7.3613410  54.7225170   8.3835920
   4.5666170  59.7892630   4.8668000   4.3407090  59.5729800   5.7714620
   3.7858700  60.2221090   4.5213970  11.7963930  59.7956000   3.4658650
  11.1972820  60.5191800   3.2822270  12.3443540  59.7332780   2.6835100
   7.0065380  60.6878210  15.5328270   6.9108980  59.7472940  15.3828670
   7.8497360  60.9093280  15.1376340  10.4028800  58.4319540   5.4961930
  10.7958370  58.7491740   4.6830620  10.7645650  57.5531420   5.6106450
   8.7120970  57.1826850  16.7558790   8.0219290  56.9899050  17.3904880
   9.4553270  57.4661490  17.2883090  10.9883940  61.0225290   9.5912710
  10.2565060  61.5312100   9.9402810  10.5908280  60.2055270   9.2901490
   7.4261330  57.6979490   7.9965200   7.4297390  57.2569440   7.1469740
   8.3212450  58.0196820   8.1037020   3.2763710  57.5805980   6.9559410
   2.9363760  58.0581210   7.7126460   2.5141030  57.1271100   6.5960510
  11.4509850  56.4758970   9.0035650  11.4682590  56.9267620   9.8477500
  11.2025430  55.5764610   9.2169090  14.8780600  53.8891150  14.8422030
  15.2026370  53.1580810  15.3680010  14.9137110  53.5704790  13.9403020
   7.7269300  61.7581270   9.7430610   8.0939430  61.2839840  10.4891950
   7.5374360  62.6322840  10.0838950   5.5168670  60.7989910  12.0614820
   5.2125740  61.6781890  12.2865180   6.4715130  60.8589700  12.0972260
   4.0450460  65.0050900   2.6581670   3.2712720  64.4648520   2.4980390
   4.7745090  64.4857510   2.3199430  14.8038440  64.0016260   8.4508060
  15.5237560  64.4971550   8.0604170  14.6020260  63.3234150   7.8061930
  10.2648380  55.3954220   2.5937450   9.4512990  54.8967390   2.5182760
  10.0710330  56.2352470   2.1773800  10.1857240  64.0725320  14.3377060
  10.1194550  63.1520990  14.0834650   9.5562380  64.1700760  15.0521700
   4.0887860  64.6731280   6.2960480   4.6066530  63.8699540   6.2417370
   3.6371880  64.6110420   7.1377310   4.7745520  62.0976890  16.0925730
   4.4745660  62.2434070  15.1953550   5.5456760  61.5382180  15.9999120
  10.1173970  66.8945890  14.0880860  10.1318510  65.9626850  13.8699770
   9.4099070  66.9805650  14.7270630  16.3285180  63.5353230  13.4349440
  15.6033370  64.1282010  13.2378830  16.8560640  63.5276770  12.6362810
  16.2798290  67.9327970   3.0861600  15.6374450  67.2783590   3.3605320
  15.8928950  68.3383060   2.3102270  11.8584770  65.2613400   6.9333290
  12.2108590  64.6641530   6.2734660  10.9747100  64.9357630   7.1041540
   7.9448050  66.0211090   4.3403700   8.6319180  66.5680300   4.7211290
   7.1580470  66.5651820   4.3753310   7.2475260  63.0257120   3.9529060
   7.7038040  63.8362370   4.1789250   6.8963470  62.7080260   4.7847550
   9.5507870  68.5363460  11.1821360  10.1950090  68.7422840  11.8594780
   9.9137310  67.7751860  10.7292210   3.1487040  53.3694770   4.4251580
   3.0201670  53.3612670   5.3736500   2.3249060  53.7077860   4.0742590
  10.8239950  66.5395810   9.8998810  11.4662180  65.8388970  10.0130980
  11.3489300  67.3194250   9.7195700  12.5977570  67.3390710  13.1034870
  12.9333810  67.9257400  13.7812790  11.6777910  67.2083420  13.3332660
   8.4266150  67.3882040  16.2722930   8.1063020  66.6691280  16.8168620
   7.7524510  68.0637110  16.3458990  11.6419750  57.6208200  11.6359730
  12.0100570  56.8003410  11.9639300  10.7817950  57.6810090  12.0515380
  15.0081780  56.5765140   2.4447290  14.3794940  56.6810810   1.7305520
  14.5133700  56.7961920   3.2341170   6.9765810  58.8551090   3.8605170
   6.2681960  59.3237430   4.3018780   7.2610290  58.1973100   4.4950360
   8.6021740  60.2747790  11.8597700   9.1006990  60.7493610  12.5249550
   8.7444690  59.3511310  12.0667730  11.0081240  55.5801750   5.3000960
  10.8849020  55.5987880   4.3510470  11.9565800  55.6280690   5.4199360
   8.0958030  70.8157050   4.5728940   8.3499530  70.7778440   3.6508310
   7.1470510  70.6890380   4.5657190  15.8088600  56.4915750  12.7026090
  15.3062200  57.2321150  13.0419900  16.6245260  56.8799750  12.3862880
  14.1010610  61.7348930   6.1487450  13.1600750  61.7499160   6.3235140
  14.4154680  60.9484890   6.5947750  16.1036190  68.9057780   7.8241710
  16.2283610  69.7288950   8.2965520  16.9701750  68.6948510   7.4765860
   3.5753720  70.9988990   7.4958840   4.3116200  70.4504450   7.7667410
   3.9594640  71.8645000   7.3564830   2.5812000  70.1835060  16.6844420
   3.3824730  70.5047110  17.0979820   2.0663820  69.8230640  17.4064330
  11.4176630  66.2914930  16.6319830  10.8114790  66.3146530  15.8915580
  11.1130740  65.5597970  17.1687080  12.8477000  70.0195220  15.2429240
  13.7998750  69.9353240  15.1929480  12.7005220  70.6836930  15.9163030
   7.3547750  64.0779510  15.1615990   6.5893420  64.6464510  15.0770660
   7.5363710  63.7855720  14.2684220  14.4971100  65.8084840  15.7191010
  15.2380570  66.1460600  15.2158470  13.7343780  65.9776900  15.1660780
   2.3332890  60.8138110  16.5230540   2.3738230  60.5151980  17.4315770
   3.1878390  61.2145720  16.3638060   4.2738700  59.3930210  14.4905030
   3.7435160  58.9021160  13.8628370   4.9426770  59.8214410  13.9562960
  13.1716760  63.8599670  14.2546220  13.5857780  64.0144750  15.1036640
  12.2367760  63.9854890  14.4172000  13.6438930  61.1995830  16.2585370
  14.2259700  60.4448150  16.1705850  13.8200700  61.7303270  15.4816850
   4.7611000  56.3592580  14.5702320   4.6667870  55.7413330  13.8453190
   4.1808390  57.0858870  14.3432230   7.5272440  54.9165820  11.6029710
   7.0789740  54.9390080  10.7575260   6.8937640  54.5184840  12.2000010
   7.9331990  63.8120150  12.2242150   8.3520100  64.6552880  12.0518390
   7.0140620  63.9492190  11.9948930  10.2695890  61.5436330  13.6079990
  10.3892100  60.9477470  14.3474830  11.1289890  61.5806020  13.1881290
  12.6083790  62.0973520  12.1842500  12.0819010  62.6216140  11.5807640
  12.9515130  62.7300910  12.8152230   5.7839410  70.1173160  13.3399880
   5.2460500  70.8419220  13.0208580   6.0373370  69.6403500  12.5497220
   7.0364660  58.0857680  14.8655810   7.6264350  57.7773530  15.5533630
   6.2184900  57.6137430  15.0215710  11.8558090  57.7023490  15.0988830
  11.1673610  57.0405030  15.0338820  12.5764110  57.2561760  15.5437290
   8.6401620  71.3524370  13.5986530   8.5660320  72.2559510  13.9058900
   7.7380460  71.0336270  13.5708600   4.6390830  67.0107970   4.5622120
   4.3386370  66.8872940   5.4626030   4.5328320  66.1516560   4.1537850
  16.1681300  69.0486550  13.9279090  15.5683290  69.1079110  13.1843010
  16.2975200  68.1091530  14.0575940  16.8639210  63.5351850   1.7683000
  17.6258120  64.1048500   1.8742690  16.8793580  62.9679050   2.5391310
  17.8699180  64.3901950   6.6124930  18.2408010  63.6069270   6.2060900
  18.5101110  65.0791050   6.4342230  14.8532940  65.7738530  12.0255250
  14.0392780  66.2035690  12.2881040  15.2607140  66.3856940  11.4124300
  16.8123720  61.7655210   3.9184950  16.4367320  60.9983140   3.4866240
  16.0826840  62.1477910   4.4059880  16.2023340  60.9126730  13.5524470
  15.9709430  60.6839480  12.6522420  16.4627890  61.8326280  13.5069360
  14.6411410  56.1383160  16.3304170  15.5181590  56.1466560  16.7138170
  14.6532250  55.4014000  15.7196520  16.0874680  59.9912700   7.2192190
  16.6112160  59.4975350   6.5882360  16.6734100  60.1263060   7.9639760
  16.2664400  60.0752570  10.7411740  15.3167110  60.0416110  10.8556730
  16.4477410  60.9852680  10.5061510  15.5774650  59.2486050   3.1584600
  16.0733770  59.0156920   3.9433480  15.3790720  58.4097890   2.7422240
  17.0061810  57.8847000   5.6922280  16.8961090  57.7303040   6.6304550
  17.7669400  57.3567940   5.4497690  15.3527530  53.8241130  12.1505280
  15.9899750  54.4375270  12.5164470  15.5002420  53.8601790  11.2054510
  14.9108990  70.5257130   5.5523520  15.5068060  70.2041700   4.8757940
  15.1687140  70.0528950   6.3436790   2.8171560  66.9575040  15.7014150
   2.7741190  66.5867950  16.5828610   2.9482570  67.8952610  15.8415970
   6.5177590  68.5134630  11.3023870   6.2768950  68.7809190  10.4154390
   7.4580230  68.6840360  11.3574730   8.7232010  54.9767320  15.0580380
   8.6620900  55.5689150  15.8075790   9.6632390  54.8693280  14.9130640
  11.3606570  54.6337380  14.6972670  11.9746980  54.9516670  14.0353750
  11.9056130  54.1485970  15.3168530  17.7781750  70.5329010  12.1034510
  17.2840030  70.9297880  11.3861640  17.1695040  69.9078220  12.4971790
   1.8827830  53.3131640  14.8111730   2.4310820  53.1319690  14.0477840
   1.9483140  52.5225750  15.3468040   2.6559590  69.9037290  12.8211930
   2.0619910  69.7721990  13.5601970   2.6483430  69.0675430  12.3554030
  12.1014610  53.1969520  11.0241960  11.2274450  53.5304630  10.8214890
  11.9925360  52.7242700  11.8493830  13.0086590  55.4040390  12.4083680
  12.6799950  54.5892150  12.0285410  13.9568890  55.3610200  12.2849370
  15.4621200  71.1752430   9.3821250  15.0024170  71.9268240   9.0079270
  14.8333660  70.4558900   9.3236050   5.8916920  69.4840670   8.5569380
   6.4081940  68.8728030   8.0317640   6.5414300  69.9869450   9.0480390
   8.6312420  70.3749160   9.3838360   8.9190230  70.1203460   8.5071370
   9.1435640  69.8226520   9.9743930   9.8489430  54.1139360   9.9634870
   9.0661220  54.5884860  10.2431630   9.5552360  53.2094190   9.8548050
  14.4010500  54.8162460   8.0083960  14.8418590  54.7607560   7.1605560
  14.1318090  55.7320470   8.0794140  16.2649070  54.4477700   6.0192780
  16.2037470  53.5038920   5.8723800  17.0441100  54.5557790   6.5646240
   7.7343650  56.5326110   5.4750900   6.9218160  56.1583000   5.1346780
   8.2385290  55.7771190   5.7772090  12.2368630  53.1968560   6.7133970
  12.8398000  53.7688770   7.1882490  11.4961620  53.7608000   6.4907870
  15.3803230  53.5990120   1.9874250  15.5753860  54.4973570   2.2541680
  14.5933100  53.3677200   2.4807200   2.1764520  69.2803290   2.4266870
   1.6512140  69.6611320   1.7228830   2.1009100  69.9054060   3.1476580
   5.7592830  54.6826030   4.0795950   5.1295570  53.9813340   4.2466080
   5.2197970  55.4430160   3.8629110   8.6984780  71.2965260  16.7506560
   9.6252090  71.0609530  16.7942520   8.6835210  72.1237260  16.2692590
  16.9329840  70.8390830   3.7480810  17.1082030  70.1528570   3.1041730
  16.2351410  71.3637880   3.3557480   5.8848390  53.9610010  16.5148440
   5.6032660  54.4643610  15.7509260   6.2668090  53.1631760  16.1490570
  12.4863850  53.3763590  17.0928910  12.3729300  53.6958200  17.9880430
  13.3033590  53.7776100  16.7966190  15.2662340  70.5235120  16.5747600
  16.0587660  70.0284350  16.3673560  15.5595490  71.2025260  17.1823210
  11.3922000  42.6212570  81.3281100  11.3116050  41.7067180  81.0572810
  10.9786420  43.1179640  80.6220810   9.5240040  44.3991590  83.2090370
   8.7482140  43.9192030  83.4988940  10.1752970  43.7197240  83.0346530
   3.5405870  44.7111400  84.0866130   2.7090750  44.4560110  84.4862640
   4.1486850  44.7822170  84.8224050  13.5447470  48.8051780  81.9889500
  13.0829000  48.0339020  82.3176670  14.3573020  48.8317850  82.4941950
   3.5207130  48.7451490  84.2824150   3.8235170  47.8549230  84.1034370
   4.2650720  49.3021710  84.0546400   9.7710780  51.0909790  81.6093490
   9.1522220  51.5467290  81.0387930  10.6262560  51.2461250  81.2083190
   8.9649030  47.0748780  83.2160530   8.8957310  46.1338720  83.0549660
   9.7268890  47.1650190  83.7883100   9.9954200  39.8819160  83.4429460
  10.3719020  39.0091040  83.3303130   9.8973710  40.2177860  82.5519900
   4.1259210  38.2544790  78.9046900   4.2325960  39.1548520  79.2115660
   3.2151570  38.2062760  78.6141550  13.7778320  37.3769600  80.3757800
  14.5987940  36.8866170  80.4183280  13.8112400  37.9667260  81.1289640
   5.9666940  41.2231160  83.2372080   6.4745160  41.7212130  83.8777100
   6.4980180  40.4466360  83.0611440  18.0677870  39.3936350  86.9401430
  17.3630040  39.7818060  86.4216540  18.3335790  40.0886640  87.5422360
   4.2503040  35.8629720  87.5035500   4.2521480  36.3802110  86.6981400
   3.4207350  35.3859900  87.4805430  10.6374130  45.9749030  79.0025400
  10.0191400  46.4398480  78.4388120  11.1497380  46.6676510  79.4194910
   5.5005890  45.5024900  85.6809000   5.1675270  46.1293820  86.3230070
   5.6772570  46.0286780  84.9010670  14.0139800  39.3169980  83.1485340
  13.3095370  39.6054870  83.7288450  14.3751960  40.1270090  82.7884900
   3.9318370  37.5739680  85.5105950   4.2735180  38.4181730  85.2159820
   2.9934180  37.7223420  85.6271290   4.7124990  47.4705700  87.4958180
   5.3298990  48.1456780  87.2142630   3.8518110  47.8793680  87.4045680
  15.6302580  48.9345110  85.4112820  14.9466100  49.6044220  85.4029490
  16.1696870  49.1325760  84.6457680  17.0826720  38.7624770  83.5394550
  16.1351630  38.7963750  83.6709980  17.4076710  39.5763720  83.9243910
   7.6146260  35.0621950  81.8350540   7.9221240  34.5068840  81.1186040
   6.6846960  35.1966410  81.6523530  13.1661320  50.7789240  84.1258000
  13.1788480  50.3751530  83.2580260  12.6136540  51.5536530  84.0219430
  14.4606740  47.5005460  79.2148170  14.3503070  46.5579790  79.3397590
  14.4574990  47.8621100  80.1010930  12.5646760  45.6819080  85.4540610
  12.9815550  45.4679190  84.6194070  13.2886580  45.9391870  86.0249230
  10.0027020  43.1270780  78.5710660   9.0756300  43.0608160  78.7999130
  10.1551840  44.0650910  78.4565900   9.9896100  39.3987780  75.5677820
   9.0499770  39.5601740  75.6530280  10.3079360  40.1173460  75.0213810
  16.5108860  44.0806300  85.5456850  15.6827490  44.1499390  85.0706980
  17.1059340  44.6660610  85.0772680  14.0324310  44.6891080  79.0745910
  13.4136730  44.3510630  78.4272210  14.0148760  44.0450840  79.7825100
  13.4750870  40.8675620  86.4911720  13.0622050  41.6929330  86.7451710
  12.7426820  40.2820660  86.2988080   5.6083660  43.6535520  81.3530390
   5.2040660  42.9412770  80.8576290   5.6946780  43.3088760  82.2418430
   6.0765360  47.3403080  83.5169600   5.7793650  46.7348550  82.8377380
   7.0265180  47.3780390  83.4058960   4.3212280  40.4278730  85.1329430
   4.8726870  40.5374070  84.3582680   4.8355790  40.8016330  85.8484660
  14.1650970  50.9134950  87.1792700  13.6881530  51.7207140  86.9865310
  13.4812760  50.2613280  87.3318910  12.2089010  43.9277890  76.0818660
  12.6482290  43.0900320  75.9356480  12.9217430  44.5607290  76.1682800
   3.9955010  43.9498090  88.7434770   3.8562780  44.8220890  89.1122170
   3.1136370  43.6070900  88.5982710  10.3184390  48.8673960  80.0499900
  10.7580300  49.6098290  79.6355290  10.2571280  49.1100530  80.9738860
  15.7906150  35.1820700  74.3959700  15.4778810  35.2747530  75.2958770
  16.5518620  35.7601730  74.3457130   2.3088290  42.5480500  78.8537040
   2.1885890  43.2742590  78.2418310   1.9989180  41.7783410  78.3764950
  11.0100170  51.5687740  87.9778910  11.5244840  51.4795750  88.7801340
  10.1669250  51.9147440  88.2706820  12.9854570  51.8543080  77.4062910
  12.8255710  51.5646020  78.3044740  12.8201280  51.0783210  76.8708140
   5.4642950  51.6341610  79.1834530   5.2885430  50.7177150  78.9702330
   4.6098690  51.9928900  79.4232330  12.6880700  49.3630640  75.9660910
  11.9945860  49.3607930  75.3063190  13.4303560  48.9389960  75.5355080
  12.2530630  50.9893350  80.0409400  12.7087580  50.2082730  80.3548020
  12.5923150  51.7000170  80.5850580   4.7751950  35.8915570  82.2360710
   4.3320100  36.6725110  81.9045230   5.3336940  36.2145460  82.9431650
   9.0621760  38.7584090  87.8396030   8.6001130  38.9667110  88.6515970
   8.6599870  37.9443440  87.5366700   7.8910770  35.5126270  77.1166540
   7.2664950  35.5086140  77.8419850   7.8040890  34.6457230  76.7202510
   6.8127850  36.4362900  84.0950310   7.1100180  37.3425730  84.0142330
   7.3613410  35.9481680  83.4809880   4.5666170  41.0149140  79.9641960
   4.3407090  40.7986310  80.8688580   3.7858700  41.4477600  79.6187930
  11.7963930  41.0212510  78.5632610  11.1972820  41.7448310  78.3796230
  12.3443540  40.9589290  77.7809060  10.4028800  39.6576050  80.5935890
  10.7958370  39.9748250  79.7804580  10.7645650  38.7787930  80.7080410
  10.9883940  42.2481800  84.6886670  10.2565060  42.7568610  85.0376770
  10.5908280  41.4311780  84.3875450   7.4261330  38.9236000  83.0939160
   7.4297390  38.4825950  82.2443700   8.3212450  39.2453330  83.2010980
   3.2763710  38.8062490  82.0533370   2.9363760  39.2837720  82.8100420
   2.5141030  38.3527610  81.6934470   7.4881480  39.9248080  76.0845920
   7.6094300  39.8834560  77.0331740   7.1029990  40.7872230  75.9292650
  11.4509850  37.7015480  84.1009610  11.4682590  38.1524130  84.9451460
  11.2025430  36.8021120  84.3143050   6.5002980  42.2349220  75.4829220
   5.9319880  41.7867470  74.8565130   7.2091980  42.5942000  74.9494370
   7.7269300  42.9837780  84.8404570   8.0939430  42.5096350  85.5865910
   7.5374360  43.8579350  85.1812910   5.5168670  42.0246420  87.1588780
   5.2125740  42.9038400  87.3839140   6.4715130  42.0846210  87.1946220
   4.0450460  46.2307410  77.7555630   3.2712720  45.6905030  77.5954350
   4.7745090  45.7114020  77.4173390  14.8038440  45.2272770  83.5482020
  15.5237560  45.7228060  83.1578130  14.6020260  44.5490660  82.9035890
  10.2648380  36.6210730  77.6911410   9.4512990  36.1223900  77.6156720
  10.0710330  37.4608980  77.2747760  12.9796770  40.9930380  75.9873570
  13.8676390  41.3047610  75.8124910  12.9501860  40.1202630  75.5954150
   4.0887860  45.8987790  81.3934440   4.6066530  45.0956050  81.3391330
   3.6371880  45.8366930  82.2351270   8.9757360  47.1654070  76.6661740
   9.3173060  47.9096300  76.1705060   8.1470070  47.4785190  77.0286570
  15.2511040  42.3042220  75.4553430  15.1674760  42.7356440  74.6049870
  15.9705230  42.7640570  75.8880250  16.3285180  44.7609740  88.5323400
  15.6033370  45.3538520  88.3352790  16.8560640  44.7533280  87.7336770
  16.2798290  49.1584480  78.1835560  15.6374450  48.5040100  78.4579280
  15.8928950  49.5639570  77.4076230  11.8584770  46.4869910  82.0307250
  12.2108590  45.8898040  81.3708620  10.9747100  46.1614140  82.2015500
   7.9448050  47.2467600  79.4377660   8.6319180  47.7936810  79.8185250
   7.1580470  47.7908330  79.4727270   7.2475260  44.2513630  79.0503020
   7.7038040  45.0618880  79.2763210   6.8963470  43.9336770  79.8821510
   9.5507870  49.7619970  86.2795320  10.1950090  49.9679350  86.9568740
   9.9137310  49.0008370  85.8266170   3.1487040  34.5951280  79.5225540
   3.0201670  34.5869180  80.4710460   2.3249060  34.9334370  79.1716550
  10.8239950  47.7652320  84.9972770  11.4662180  47.0645480  85.1104940
  11.3489300  48.5450760  84.8169660  14.6695670  48.0500940  74.7211910
  14.4433250  47.3331380  75.3136550  14.2791870  47.8013380  73.8833660
  12.5977570  48.5647220  88.2008830  12.9333810  49.1513910  88.8786750
  11.6777910  48.4339930  88.4306620  14.2511920  45.9672880  76.3826070
  13.9633620  46.4285570  77.1703950  15.0464090  45.5070650  76.6510290
   6.4680320  49.4599000  76.3130040   6.4590420  50.1928690  75.6974550
   5.5478680  49.2130580  76.4057000  11.6419750  38.8464710  86.7333690
  12.0100570  38.0259920  87.0613260  10.7817950  38.9066600  87.1489340
  15.0081780  37.8021650  77.5421250  14.3794940  37.9067320  76.8279480
  14.5133700  38.0218430  78.3315130   9.4539920  49.5227240  74.9755230
   9.5551900  49.3191230  74.0457210   8.5541660  49.2685520  75.1803010
   6.9765810  40.0807600  78.9579130   6.2681960  40.5493940  79.3992740
   7.2610290  39.4229610  79.5924320   8.6021740  41.5004300  86.9571660
   9.1006990  41.9750120  87.6223510   8.7444690  40.5767820  87.1641690
  11.0081240  36.8058260  80.3974920  10.8849020  36.8244390  79.4484430
  11.9565800  36.8537200  80.5173320   8.0958030  52.0413560  79.6702900
   8.3499530  52.0034950  78.7482270   7.1470510  51.9146890  79.6631150
   5.1800830  38.3892680  76.3329840   6.0291360  38.8262830  76.2670030
   4.8132100  38.7012940  77.1601900  15.8088600  37.7172260  87.8000050
  15.3062200  38.4577660  88.1393860  16.6245260  38.1056260  87.4836840
  14.1010610  42.9605440  81.2461410  13.1600750  42.9755670  81.4209100
  14.4154680  42.1741400  81.6921710   4.0792250  44.6425040  74.8065370
   4.8455520  44.5306400  75.3690800   4.1566940  43.9463010  74.1542140
   2.7739010  42.0750110  75.4898260   2.8542600  41.1277620  75.6015660
   3.6658760  42.4056990  75.5958920  16.1036190  50.1314290  82.9215670
  16.2283610  50.9545460  83.3939480  16.9701750  49.9205020  82.5739820
   3.5753720  52.2245500  82.5932800   4.3116200  51.6760960  82.8641370
   3.9594640  53.0901510  82.4538790   6.6856030  51.3975810  74.4158370
   7.4784640  51.6864640  73.9640160   6.1660380  50.9667980  73.7370850
  15.7386200  50.6245940  75.8395110  15.4527710  50.2111080  75.0249290
  15.5405750  51.5533650  75.7195630   7.2033430  46.6179220  74.2800720
   7.0984070  46.0031570  75.0062100   7.0357650  46.0945110  73.4963730
  10.4436160  45.6799250  74.8842710   9.8946260  46.1268550  75.5285450
  11.0655420  45.1748500  75.4080380   6.1111280  44.6390170  76.7808010
   6.5327700  44.4730040  77.6239400   6.2362120  43.8290400  76.2863150
   8.6238920  43.6627780  74.0285110   9.1444580  42.9476800  73.6626260
   9.2707320  44.3013650  74.3285620   7.5272440  36.1422330  86.7003670
   7.0789740  36.1646590  85.8549220   6.8937640  35.7441350  87.2973970
   7.9331990  45.0376660  87.3216110   8.3520100  45.8809390  87.1492350
   7.0140620  45.1748700  87.0922890  12.6083790  43.3230030  87.2816460
  12.0819010  43.8472650  86.6781600  12.9515130  43.9557420  87.9126190
   5.0070180  40.7123400  73.7266170   4.8059240  39.8490760  74.0879510
   4.8362230  40.6256760  72.7887770   5.7839410  51.3429670  88.4373840
   5.2460500  52.0675730  88.1182540   6.0373370  50.8660010  87.6471180
  12.4858490  35.5231630  76.2553050  12.7660780  34.6799530  76.6112470
  11.7124220  35.7554740  76.7691800   3.8052980  37.8124020  73.7144050
   4.1078880  37.8191450  72.8063200   4.5447570  37.4621880  74.2111710
   8.6401620  52.5780880  88.6960490   8.5660320  53.4816020  89.0032860
   7.7380460  52.2592780  88.6682560   7.0237910  36.7558640  74.7000250
   6.6759910  36.0782630  74.1202700   7.2250680  36.2948150  75.5143640
   9.1886950  51.7439390  76.3186850  10.0837740  52.0824360  76.3405610
   9.2204580  51.0218800  75.6911130   2.8283110  47.1166440  74.5473850
   3.2657980  47.6596110  75.2031430   3.3130840  46.2913390  74.5570190
   4.6390830  48.2364480  79.6596080   4.3386370  48.1129450  80.5599990
   4.5328320  47.3773070  79.2511810  17.4082750  48.0160880  74.3622760
  16.5775710  48.0837530  74.8329990  17.5854580  48.9065000  74.0589620
  16.8639210  44.7608360  76.8656960  17.6258120  45.3305010  76.9716650
  16.8793580  44.1935560  77.6365270  17.8699180  45.6158460  81.7098890
  18.2408010  44.8325780  81.3034860  18.5101110  46.3047560  81.5316190
  14.8532940  46.9995040  87.1229210  14.0392780  47.4292200  87.3855000
  15.2607140  47.6113450  86.5098260  16.9158380  45.0542730  74.0229480
  17.1907220  45.9621610  73.8948700  16.7269120  44.9905260  74.9591470
  13.3133990  38.0787580  75.3183110  13.7318870  37.8918560  74.4779770
  13.0070050  37.2266630  75.6286040  16.8123720  42.9911720  79.0158910
  16.4367320  42.2239650  78.5840200  16.0826840  43.3734420  79.5033840
  16.2023340  42.1383240  88.6498430  15.9709430  41.9095990  87.7496380
  16.4627890  43.0582790  88.6043320  16.0874680  41.2169210  82.3166150
  16.6112160  40.7231860  81.6856320  16.6734100  41.3519570  83.0613720
  16.2664400  41.3009080  85.8385700  15.3167110  41.2672620  85.9530690
  16.4477410  42.2109190  85.6035470   1.7683000  35.6050090  73.9886980
   2.4911130  36.1459030  74.3068200   2.0407520  35.3313510  73.1128520
  15.5774650  40.4742560  78.2558560  16.0733770  40.2413430  79.0407440
  15.3790720  39.6354400  77.8396200  17.0061810  39.1103510  80.7896240
  16.8961090  38.9559550  81.7278510  17.7669400  38.5824450  80.5471650
  15.3527530  35.0497640  87.2479240  15.9899750  35.6631780  87.6138430
  15.5002420  35.0858300  86.3028470  17.8952080  36.9411430  74.0302380
  18.8201390  36.8092610  73.8220670  17.8727870  37.0204250  74.9838830
  17.9690570  37.7122090  76.6559090  17.1742070  37.6467210  77.1852000
  18.1733850  38.6472730  76.6444440  14.9108990  51.7513640  80.6497480
  15.5068060  51.4298210  79.9731900  15.1687140  51.2785460  81.4410750
   6.5177590  49.7391140  86.3997830   6.2768950  50.0065700  85.5128350
   7.4580230  49.9096870  86.4548690  17.7781750  51.7585520  87.2008470
  17.2840030  52.1554390  86.4835600  17.1695040  51.1334730  87.5945750
   2.6559590  51.1293800  87.9185890   2.0619910  50.9978500  88.6575930
   2.6483430  50.2931940  87.4527990  12.1014610  34.4226030  86.1215920
  11.2274450  34.7561140  85.9188850  11.9925360  33.9499210  86.9467790
  13.0086590  36.6296900  87.5057640  12.6799950  35.8148660  87.1259370
  13.9568890  36.5866710  87.3823330  15.4621200  52.4008940  84.4795210
  15.0024170  53.1524750  84.1053230  14.8333660  51.6815410  84.4210010
   5.8916920  50.7097180  83.6543340   6.4081940  50.0984540  83.1291600
   6.5414300  51.2125960  84.1454350   8.6312420  51.6005670  84.4812320
   8.9190230  51.3459970  83.6045330   9.1435640  51.0483030  85.0717890
   9.8489430  35.3395870  85.0608830   9.0661220  35.8141370  85.3405590
   9.5552360  34.4350700  84.9522010  14.4010500  36.0418970  83.1057920
  14.8418590  35.9864070  82.2579520  14.1318090  36.9576980  83.1768100
  16.2649070  35.6734210  81.1166740  16.2037470  34.7295430  80.9697760
  17.0441100  35.7814300  81.6620200   7.7343650  37.7582620  80.5724860
   6.9218160  37.3839510  80.2320740   8.2385290  37.0027700  80.8746050
  12.2368630  34.4225070  81.8107930  12.8398000  34.9945280  82.2856450
  11.4961620  34.9864510  81.5881830  15.3803230  34.8246630  77.0848210
  15.5753860  35.7230080  77.3515640  14.5933100  34.5933710  77.5781160
   2.1764520  50.5059800  77.5240830   1.6512140  50.8867830  76.8202790
   2.1009100  51.1310570  78.2450540   3.5654990  36.1707400  76.1224520
   4.0947750  35.3837200  75.9932470   4.1983310  36.8498590  76.3560050
   5.7592830  35.9082540  79.1769910   5.1295570  35.2069850  79.3440040
   5.2197970  36.6686670  78.9603070  16.9329840  52.0647340  78.8454770
  17.1082030  51.3785080  78.2015690  16.2351410  52.5894390  78.4531440
   4.7757490  52.4542180  76.3990080   5.5076310  52.1701460  75.8513970
   5.0351160  52.2155460  77.2889460   3.9372280  48.5706910  76.4036410
   3.3081160  49.0392010  76.9522240   4.0520110  47.7256130  76.8382600
  11.3922000  42.6212570  62.5537610  11.3116050  41.7067180  62.2829320
  10.9786420  43.1179640  61.8477320   9.5240040  44.3991590  64.4346880
   8.7482140  43.9192030  64.7245450  10.1752970  43.7197240  64.2603040
   3.5405870  44.7111400  65.3122640   2.7090750  44.4560110  65.7119150
   4.1486850  44.7822170  66.0480560  13.5447470  48.8051780  63.2146010
  13.0829000  48.0339020  63.5433180  14.3573020  48.8317850  63.7198460
   3.5207130  48.7451490  65.5080660   3.8235170  47.8549230  65.3290880
   4.2650720  49.3021710  65.2802910   9.7710780  51.0909790  62.8350000
   9.1522220  51.5467290  62.2644440  10.6262560  51.2461250  62.4339700
   8.9649030  47.0748780  64.4417040   8.8957310  46.1338720  64.2806170
   9.7268890  47.1650190  65.0139610   9.9954200  39.8819160  64.6685970
  10.3719020  39.0091040  64.5559640   9.8973710  40.2177860  63.7776410
   4.1259210  38.2544790  60.1303410   4.2325960  39.1548520  60.4372170
   3.2151570  38.2062760  59.8398060  13.7778320  37.3769600  61.6014310
  14.5987940  36.8866170  61.6439790  13.8112400  37.9667260  62.3546150
   5.9666940  41.2231160  64.4628590   6.4745160  41.7212130  65.1033610
   6.4980180  40.4466360  64.2867950  18.0677870  39.3936350  68.1657940
  17.3630040  39.7818060  67.6473050  18.3335790  40.0886640  68.7678870
   4.2503040  35.8629720  68.7292010   4.2521480  36.3802110  67.9237910
   3.4207350  35.3859900  68.7061940  10.6374130  45.9749030  60.2281910
  10.0191400  46.4398480  59.6644630  11.1497380  46.6676510  60.6451420
   5.5005890  45.5024900  66.9065510   5.1675270  46.1293820  67.5486580
   5.6772570  46.0286780  66.1267180  14.0139800  39.3169980  64.3741850
  13.3095370  39.6054870  64.9544960  14.3751960  40.1270090  64.0141410
   3.9318370  37.5739680  66.7362460   4.2735180  38.4181730  66.4416330
   2.9934180  37.7223420  66.8527800   4.7124990  47.4705700  68.7214690
   5.3298990  48.1456780  68.4399140   3.8518110  47.8793680  68.6302190
  15.6302580  48.9345110  66.6369330  14.9466100  49.6044220  66.6286000
  16.1696870  49.1325760  65.8714190  17.0826720  38.7624770  64.7651060
  16.1351630  38.7963750  64.8966490  17.4076710  39.5763720  65.1500420
   7.6146260  35.0621950  63.0607050   7.9221240  34.5068840  62.3442550
   6.6846960  35.1966410  62.8780040  13.1661320  50.7789240  65.3514510
  13.1788480  50.3751530  64.4836770  12.6136540  51.5536530  65.2475940
  14.4606740  47.5005460  60.4404680  14.3503070  46.5579790  60.5654100
  14.4574990  47.8621100  61.3267440  12.5646760  45.6819080  66.6797120
  12.9815550  45.4679190  65.8450580  13.2886580  45.9391870  67.2505740
  10.0027020  43.1270780  59.7967170   9.0756300  43.0608160  60.0255640
  10.1551840  44.0650910  59.6822410   9.9896100  39.3987780  56.7934330
   9.0499770  39.5601740  56.8786790  10.3079360  40.1173460  56.2470320
  16.5108860  44.0806300  66.7713360  15.6827490  44.1499390  66.2963490
  17.1059340  44.6660610  66.3029190  14.0324310  44.6891080  60.3002420
  13.4136730  44.3510630  59.6528720  14.0148760  44.0450840  61.0081610
  13.4750870  40.8675620  67.7168230  13.0622050  41.6929330  67.9708220
  12.7426820  40.2820660  67.5244590   5.6083660  43.6535520  62.5786900
   5.2040660  42.9412770  62.0832800   5.6946780  43.3088760  63.4674940
   6.0765360  47.3403080  64.7426110   5.7793650  46.7348550  64.0633890
   7.0265180  47.3780390  64.6315470   4.3212280  40.4278730  66.3585940
   4.8726870  40.5374070  65.5839190   4.8355790  40.8016330  67.0741170
  14.1650970  50.9134950  68.4049210  13.6881530  51.7207140  68.2121820
  13.4812760  50.2613280  68.5575420   5.1683790  47.0784770  71.3933910
   4.2712320  47.3024740  71.6407310   5.1936660  47.2019710  70.4445310
  12.2089010  43.9277890  57.3075170  12.6482290  43.0900320  57.1612990
  12.9217430  44.5607290  57.3939310   3.9955010  43.9498090  69.9691280
   3.8562780  44.8220890  70.3378680   3.1136370  43.6070900  69.8239220
  10.3184390  48.8673960  61.2756410  10.7580300  49.6098290  60.8611800
  10.2571280  49.1100530  62.1995370   5.7935360  49.8919790  72.1776430
   5.7650790  50.2962740  71.3104860   5.6300330  48.9630150  72.0148030
   2.3088290  42.5480500  60.0793550   2.1885890  43.2742590  59.4674820
   1.9989180  41.7783410  59.6021460  17.7450180  50.6746890  73.4740600
  18.2209900  51.1529780  74.1529680  18.3657340  50.6064380  72.7486100
  17.1483430  47.8659740  70.6340610  17.2746490  47.6271620  69.7157790
  17.1904810  47.0344280  71.1062690  11.0100170  51.5687740  69.2035420
  11.5244840  51.4795750  70.0057850  10.1669250  51.9147440  69.4963330
  12.9854570  51.8543080  58.6319420  12.8255710  51.5646020  59.5301250
  12.8201280  51.0783210  58.0964650   5.4642950  51.6341610  60.4091040
   5.2885430  50.7177150  60.1958840   4.6098690  51.9928900  60.6488840
  12.6880700  49.3630640  57.1917420  11.9945860  49.3607930  56.5319700
  13.4303560  48.9389960  56.7611590  12.2530630  50.9893350  61.2665910
  12.7087580  50.2082730  61.5804530  12.5923150  51.7000170  61.8107090
  17.0007440  39.9192200  71.5990350  16.3851710  40.4271870  71.0705810
  16.6803860  39.0190530  71.5416290   4.7751950  35.8915570  63.4617220
   4.3320100  36.6725110  63.1301740   5.3336940  36.2145460  64.1688160
   9.0621760  38.7584090  69.0652540   8.6001130  38.9667110  69.8772480
   8.6599870  37.9443440  68.7623210  14.0626270  39.9793040  70.1949200
  13.2119860  39.6798790  70.5158270  13.9028060  40.2235050  69.2833020
  11.1575980  41.4794790  72.2947990  11.4829390  40.6458540  71.9550220
  11.9456310  42.0023310  72.4426320   7.8910770  35.5126270  58.3423050
   7.2664950  35.5086140  59.0676360   7.8040890  34.6457230  57.9459020
   6.8127850  36.4362900  65.3206820   7.1100180  37.3425730  65.2398840
   7.3613410  35.9481680  64.7066390   4.5666170  41.0149140  61.1898470
   4.3407090  40.7986310  62.0945090   3.7858700  41.4477600  60.8444440
  11.7963930  41.0212510  59.7889120  11.1972820  41.7448310  59.6052740
  12.3443540  40.9589290  59.0065570   7.0065380  41.9134720  71.8558740
   6.9108980  40.9729450  71.7059140   7.8497360  42.1349790  71.4606810
  10.4028800  39.6576050  61.8192400  10.7958370  39.9748250  61.0061090
  10.7645650  38.7787930  61.9336920   8.7120970  38.4083360  73.0789260
   8.0219290  38.2155560  73.7135350   9.4553270  38.6918000  73.6113560
  10.9883940  42.2481800  65.9143180  10.2565060  42.7568610  66.2633280
  10.5908280  41.4311780  65.6131960   7.4261330  38.9236000  64.3195670
   7.4297390  38.4825950  63.4700210   8.3212450  39.2453330  64.4267490
   3.2763710  38.8062490  63.2789880   2.9363760  39.2837720  64.0356930
   2.5141030  38.3527610  62.9190980   7.4881480  39.9248080  57.3102430
   7.6094300  39.8834560  58.2588250   7.1029990  40.7872230  57.1549160
  11.4509850  37.7015480  65.3266120  11.4682590  38.1524130  66.1707970
  11.2025430  36.8021120  65.5399560   6.5002980  42.2349220  56.7085730
   5.9319880  41.7867470  56.0821640   7.2091980  42.5942000  56.1750880
  14.8780600  35.1147660  71.1652500  15.2026370  34.3837320  71.6910480
  14.9137110  34.7961300  70.2633490   7.7269300  42.9837780  66.0661080
   8.0939430  42.5096350  66.8122420   7.5374360  43.8579350  66.4069420
   5.5168670  42.0246420  68.3845290   5.2125740  42.9038400  68.6095650
   6.4715130  42.0846210  68.4202730   4.0450460  46.2307410  58.9812140
   3.2712720  45.6905030  58.8210860   4.7745090  45.7114020  58.6429900
  14.8038440  45.2272770  64.7738530  15.5237560  45.7228060  64.3834640
  14.6020260  44.5490660  64.1292400  10.2648380  36.6210730  58.9167920
   9.4512990  36.1223900  58.8413230  10.0710330  37.4608980  58.5004270
  10.1857240  45.2981830  70.6607530  10.1194550  44.3777500  70.4065120
   9.5562380  45.3957270  71.3752170  12.9796770  40.9930380  57.2130080
  13.8676390  41.3047610  57.0381420  12.9501860  40.1202630  56.8210660
   4.0887860  45.8987790  62.6190950   4.6066530  45.0956050  62.5647840
   3.6371880  45.8366930  63.4607780   8.9757360  47.1654070  57.8918250
   9.3173060  47.9096300  57.3961570   8.1470070  47.4785190  58.2543080
   4.7745520  43.3233400  72.4156200   4.4745660  43.4690580  71.5184020
   5.5456760  42.7638690  72.3229590  10.1173970  48.1202400  70.4111330
  10.1318510  47.1883360  70.1930240   9.4099070  48.2062160  71.0501100
  15.2511040  42.3042220  56.6809940  15.1674760  42.7356440  55.8306380
  15.9705230  42.7640570  57.1136760  16.3285180  44.7609740  69.7579910
  15.6033370  45.3538520  69.5609300  16.8560640  44.7533280  68.9593280
  16.2798290  49.1584480  59.4092070  15.6374450  48.5040100  59.6835790
  15.8928950  49.5639570  58.6332740  11.8584770  46.4869910  63.2563760
  12.2108590  45.8898040  62.5965130  10.9747100  46.1614140  63.4272010
   7.9448050  47.2467600  60.6634170   8.6319180  47.7936810  61.0441760
   7.1580470  47.7908330  60.6983780   7.2475260  44.2513630  60.2759530
   7.7038040  45.0618880  60.5019720   6.8963470  43.9336770  61.1078020
   9.5507870  49.7619970  67.5051830  10.1950090  49.9679350  68.1825250
   9.9137310  49.0008370  67.0522680   3.1487040  34.5951280  60.7482050
   3.0201670  34.5869180  61.6966970   2.3249060  34.9334370  60.3973060
  10.8239950  47.7652320  66.2229280  11.4662180  47.0645480  66.3361450
  11.3489300  48.5450760  66.0426170  14.6695670  48.0500940  55.9468420
  14.4433250  47.3331380  56.5393060  14.2791870  47.8013380  55.1090170
  12.5977570  48.5647220  69.4265340  12.9333810  49.1513910  70.1043260
  11.6777910  48.4339930  69.6563130  14.2511920  45.9672880  57.6082580
  13.9633620  46.4285570  58.3960460  15.0464090  45.5070650  57.8766800
   8.4266150  48.6138550  72.5953400   8.1063020  47.8947790  73.1399090
   7.7524510  49.2893620  72.6689460   6.4680320  49.4599000  57.5386550
   6.4590420  50.1928690  56.9231060   5.5478680  49.2130580  57.6313510
  11.6419750  38.8464710  67.9590200  12.0100570  38.0259920  68.2869770
  10.7817950  38.9066600  68.3745850  15.0081780  37.8021650  58.7677760
  14.3794940  37.9067320  58.0535990  14.5133700  38.0218430  59.5571640
   9.4539920  49.5227240  56.2011740   9.5551900  49.3191230  55.2713720
   8.5541660  49.2685520  56.4059520   6.9765810  40.0807600  60.1835640
   6.2681960  40.5493940  60.6249250   7.2610290  39.4229610  60.8180830
   8.6021740  41.5004300  68.1828170   9.1006990  41.9750120  68.8480020
   8.7444690  40.5767820  68.3898200  11.0081240  36.8058260  61.6231430
  10.8849020  36.8244390  60.6740940  11.9565800  36.8537200  61.7429830
   8.0958030  52.0413560  60.8959410   8.3499530  52.0034950  59.9738780
   7.1470510  51.9146890  60.8887660   5.1800830  38.3892680  57.5586350
   6.0291360  38.8262830  57.4926540   4.8132100  38.7012940  58.3858410
  15.8088600  37.7172260  69.0256560  15.3062200  38.4577660  69.3650370
  16.6245260  38.1056260  68.7093350  14.1010610  42.9605440  62.4717920
  13.1600750  42.9755670  62.6465610  14.4154680  42.1741400  62.9178220
   4.0792250  44.6425040  56.0321880   4.8455520  44.5306400  56.5947310
   4.1566940  43.9463010  55.3798650   2.7739010  42.0750110  56.7154770
   2.8542600  41.1277620  56.8272170   3.6658760  42.4056990  56.8215430
  16.1036190  50.1314290  64.1472180  16.2283610  50.9545460  64.6195990
  16.9701750  49.9205020  63.7996330   3.5753720  52.2245500  63.8189310
   4.3116200  51.6760960  64.0897880   3.9594640  53.0901510  63.6795300
   2.5812000  51.4091570  73.0074890   3.3824730  51.7303620  73.4210290
   2.0663820  51.0487150  73.7294800   6.6856030  51.3975810  55.6414880
   7.4784640  51.6864640  55.1896670   6.1660380  50.9667980  54.9627360
  11.4176630  47.5171440  72.9550300  10.8114790  47.5403040  72.2146050
  11.1130740  46.7854480  73.4917550  12.8477000  51.2451730  71.5659710
  13.7998750  51.1609750  71.5159950  12.7005220  51.9093440  72.2393500
  15.7386200  50.6245940  57.0651620  15.4527710  50.2111080  56.2505800
  15.5405750  51.5533650  56.9452140   7.2033430  46.6179220  55.5057230
   7.0984070  46.0031570  56.2318610   7.0357650  46.0945110  54.7220240
   7.3547750  45.3036020  71.4846460   6.5893420  45.8721020  71.4001130
   7.5363710  45.0112230  70.5914690  10.4436160  45.6799250  56.1099220
   9.8946260  46.1268550  56.7541960  11.0655420  45.1748500  56.6336890
  14.4971100  47.0341350  72.0421480  15.2380570  47.3717110  71.5388940
  13.7343780  47.2033410  71.4891250   2.3332890  42.0394620  72.8461010
   2.3738230  41.7408490  73.7546240   3.1878390  42.4402230  72.6868530
   6.1111280  44.6390170  58.0064520   6.5327700  44.4730040  58.8495910
   6.2362120  43.8290400  57.5119660   4.2738700  40.6186720  70.8135500
   3.7435160  40.1277670  70.1858840   4.9426770  41.0470920  70.2793430
   8.6238920  43.6627780  55.2541620   9.1444580  42.9476800  54.8882770
   9.2707320  44.3013650  55.5542130  13.1716760  45.0856180  70.5776690
  13.5857780  45.2401260  71.4267110  12.2367760  45.2111400  70.7402470
  13.6438930  42.4252340  72.5815840  14.2259700  41.6704660  72.4936320
  13.8200700  42.9559780  71.8047320   4.7611000  37.5849090  70.8932790
   4.6667870  36.9669840  70.1683660   4.1808390  38.3115380  70.6662700
   7.5272440  36.1422330  67.9260180   7.0789740  36.1646590  67.0805730
   6.8937640  35.7441350  68.5230480   7.9331990  45.0376660  68.5472620
   8.3520100  45.8809390  68.3748860   7.0140620  45.1748700  68.3179400
  10.2695890  42.7692840  69.9310460  10.3892100  42.1733980  70.6705300
  11.1289890  42.8062530  69.5111760  12.6083790  43.3230030  68.5072970
  12.0819010  43.8472650  67.9038110  12.9515130  43.9557420  69.1382700
   5.0070180  40.7123400  54.9522680   4.8059240  39.8490760  55.3136020
   4.8362230  40.6256760  54.0144280   5.7839410  51.3429670  69.6630350
   5.2460500  52.0675730  69.3439050   6.0373370  50.8660010  68.8727690
   7.0364660  39.3114190  71.1886280   7.6264350  39.0030040  71.8764100
   6.2184900  38.8393940  71.3446180  11.8558090  38.9280000  71.4219300
  11.1673610  38.2661540  71.3569290  12.5764110  38.4818270  71.8667760
  12.4858490  35.5231630  57.4809560  12.7660780  34.6799530  57.8368980
  11.7124220  35.7554740  57.9948310   3.8052980  37.8124020  54.9400560
   4.1078880  37.8191450  54.0319710   4.5447570  37.4621880  55.4368220
   8.6401620  52.5780880  69.9217000   8.5660320  53.4816020  70.2289370
   7.7380460  52.2592780  69.8939070   7.0237910  36.7558640  55.9256760
   6.6759910  36.0782630  55.3459210   7.2250680  36.2948150  56.7400150
   9.1886950  51.7439390  57.5443360  10.0837740  52.0824360  57.5662120
   9.2204580  51.0218800  56.9167640   2.8283110  47.1166440  55.7730360
   3.2657980  47.6596110  56.4287940   3.3130840  46.2913390  55.7826700
   4.6390830  48.2364480  60.8852590   4.3386370  48.1129450  61.7856500
   4.5328320  47.3773070  60.4768320  16.1681300  50.2743060  70.2509560
  15.5683290  50.3335620  69.5073480  16.2975200  49.3348040  70.3806410
  17.4082750  48.0160880  55.5879270  16.5775710  48.0837530  56.0586500
  17.5854580  48.9065000  55.2846130  16.8639210  44.7608360  58.0913470
  17.6258120  45.3305010  58.1973160  16.8793580  44.1935560  58.8621780
  17.8699180  45.6158460  62.9355400  18.2408010  44.8325780  62.5291370
  18.5101110  46.3047560  62.7572700  14.8532940  46.9995040  68.3485720
  14.0392780  47.4292200  68.6111510  15.2607140  47.6113450  67.7354770
  16.9158380  45.0542730  55.2485990  17.1907220  45.9621610  55.1205210
  16.7269120  44.9905260  56.1847980  13.3133990  38.0787580  56.5439620
  13.7318870  37.8918560  55.7036280  13.0070050  37.2266630  56.8542550
  16.8123720  42.9911720  60.2415420  16.4367320  42.2239650  59.8096710
  16.0826840  43.3734420  60.7290350  16.2023340  42.1383240  69.8754940
  15.9709430  41.9095990  68.9752890  16.4627890  43.0582790  69.8299830
  14.6411410  37.3639670  72.6534640  15.5181590  37.3723070  73.0368640
  14.6532250  36.6270510  72.0426990  16.0874680  41.2169210  63.5422660
  16.6112160  40.7231860  62.9112830  16.6734100  41.3519570  64.2870230
  16.2664400  41.3009080  67.0642210  15.3167110  41.2672620  67.1787200
  16.4477410  42.2109190  66.8291980   1.7683000  35.6050090  55.2143490
   2.4911130  36.1459030  55.5324710   2.0407520  35.3313510  54.3385030
  15.5774650  40.4742560  59.4815070  16.0733770  40.2413430  60.2663950
  15.3790720  39.6354400  59.0652710  17.0061810  39.1103510  62.0152750
  16.8961090  38.9559550  62.9535020  17.7669400  38.5824450  61.7728160
  15.3527530  35.0497640  68.4735750  15.9899750  35.6631780  68.8394940
  15.5002420  35.0858300  67.5284980  17.9690570  37.7122090  57.8815600
  17.1742070  37.6467210  58.4108510  18.1733850  38.6472730  57.8700950
  14.9108990  51.7513640  61.8753990  15.5068060  51.4298210  61.1988410
  15.1687140  51.2785460  62.6667260   2.8171560  48.1831550  72.0244620
   2.7741190  47.8124460  72.9059080   2.9482570  49.1209120  72.1646440
   6.5177590  49.7391140  67.6254340   6.2768950  50.0065700  66.7384860
   7.4580230  49.9096870  67.6805200   8.7232010  36.2023830  71.3810850
   8.6620900  36.7945660  72.1306260   9.6632390  36.0949790  71.2361110
  11.3606570  35.8593890  71.0203140  11.9746980  36.1773180  70.3584220
  11.9056130  35.3742480  71.6399000  17.7781750  51.7585520  68.4264980
  17.2840030  52.1554390  67.7092110  17.1695040  51.1334730  68.8202260
   1.8827830  34.5388150  71.1342200   2.4310820  34.3576200  70.3708310
   1.9483140  33.7482260  71.6698510   2.6559590  51.1293800  69.1442400
   2.0619910  50.9978500  69.8832440   2.6483430  50.2931940  68.6784500
  12.1014610  34.4226030  67.3472430  11.2274450  34.7561140  67.1445360
  11.9925360  33.9499210  68.1724300  13.0086590  36.6296900  68.7314150
  12.6799950  35.8148660  68.3515880  13.9568890  36.5866710  68.6079840
  15.4621200  52.4008940  65.7051720  15.0024170  53.1524750  65.3309740
  14.8333660  51.6815410  65.6466520   5.8916920  50.7097180  64.8799850
   6.4081940  50.0984540  64.3548110   6.5414300  51.2125960  65.3710860
   8.6312420  51.6005670  65.7068830   8.9190230  51.3459970  64.8301840
   9.1435640  51.0483030  66.2974400   9.8489430  35.3395870  66.2865340
   9.0661220  35.8141370  66.5662100   9.5552360  34.4350700  66.1778520
  14.4010500  36.0418970  64.3314430  14.8418590  35.9864070  63.4836030
  14.1318090  36.9576980  64.4024610  16.2649070  35.6734210  62.3423250
  16.2037470  34.7295430  62.1954270  17.0441100  35.7814300  62.8876710
   7.7343650  37.7582620  61.7981370   6.9218160  37.3839510  61.4577250
   8.2385290  37.0027700  62.1002560  12.2368630  34.4225070  63.0364440
  12.8398000  34.9945280  63.5112960  11.4961620  34.9864510  62.8138340
  15.3803230  34.8246630  58.3104720  15.5753860  35.7230080  58.5772150
  14.5933100  34.5933710  58.8037670   2.1764520  50.5059800  58.7497340
   1.6512140  50.8867830  58.0459300   2.1009100  51.1310570  59.4707050
   3.5654990  36.1707400  57.3481030   4.0947750  35.3837200  57.2188980
   4.1983310  36.8498590  57.5816560   5.7592830  35.9082540  60.4026420
   5.1295570  35.2069850  60.5696550   5.2197970  36.6686670  60.1859580
   8.6984780  52.5221770  73.0737030   9.6252090  52.2866040  73.1172990
   8.6835210  53.3493770  72.5923060  16.9329840  52.0647340  60.0711280
  17.1082030  51.3785080  59.4272200  16.2351410  52.5894390  59.6787950
   5.8848390  35.1866520  72.8378910   5.6032660  35.6900120  72.0739730
   6.2668090  34.3888270  72.4721040   4.7757490  52.4542180  57.6246590
   5.5076310  52.1701460  57.0770480   5.0351160  52.2155460  58.5145970
   3.9372280  48.5706910  57.6292920   3.3081160  49.0392010  58.1778750
   4.0520110  47.7256130  58.0639110  12.4863850  34.6020100  73.4159380
  12.3729300  34.9214710  74.3110900  13.3033590  35.0032610  73.1196660
  15.2662340  51.7491630  72.8978070  16.0587660  51.2540860  72.6904030
  15.5595490  52.4281770  73.5053680  11.3922000  42.6212570  43.7794120
  11.3116050  41.7067180  43.5085830  10.9786420  43.1179640  43.0733830
   9.5240040  44.3991590  45.6603390   8.7482140  43.9192030  45.9501960
  10.1752970  43.7197240  45.4859550   3.5405870  44.7111400  46.5379150
   2.7090750  44.4560110  46.9375660   4.1486850  44.7822170  47.2737070
  13.5447470  48.8051780  44.4402520  13.0829000  48.0339020  44.7689690
  14.3573020  48.8317850  44.9454970   3.5207130  48.7451490  46.7337170
   3.8235170  47.8549230  46.5547390   4.2650720  49.3021710  46.5059420
   9.7710780  51.0909790  44.0606510   9.1522220  51.5467290  43.4900950
  10.6262560  51.2461250  43.6596210   8.9649030  47.0748780  45.6673550
   8.8957310  46.1338720  45.5062680   9.7268890  47.1650190  46.2396120
   9.9954200  39.8819160  45.8942480  10.3719020  39.0091040  45.7816150
   9.8973710  40.2177860  45.0032920   4.1259210  38.2544790  41.3559920
   4.2325960  39.1548520  41.6628680   3.2151570  38.2062760  41.0654570
  13.7778320  37.3769600  42.8270820  14.5987940  36.8866170  42.8696300
  13.8112400  37.9667260  43.5802660   5.9666940  41.2231160  45.6885100
   6.4745160  41.7212130  46.3290120   6.4980180  40.4466360  45.5124460
   4.2503040  35.8629720  49.9548520   4.2521480  36.3802110  49.1494420
   3.4207350  35.3859900  49.9318450  10.6374130  45.9749030  41.4538420
  10.0191400  46.4398480  40.8901140  11.1497380  46.6676510  41.8707930
   5.5005890  45.5024900  48.1322020   5.1675270  46.1293820  48.7743090
   5.6772570  46.0286780  47.3523690  14.0139800  39.3169980  45.5998360
  13.3095370  39.6054870  46.1801470  14.3751960  40.1270090  45.2397920
   3.9318370  37.5739680  47.9618970   4.2735180  38.4181730  47.6672840
   2.9934180  37.7223420  48.0784310   4.7124990  47.4705700  49.9471200
   5.3298990  48.1456780  49.6655650   3.8518110  47.8793680  49.8558700
  15.6302580  48.9345110  47.8625840  14.9466100  49.6044220  47.8542510
  16.1696870  49.1325760  47.0970700  17.0826720  38.7624770  45.9907570
  16.1351630  38.7963750  46.1223000  17.4076710  39.5763720  46.3756930
   7.6146260  35.0621950  44.2863560   7.9221240  34.5068840  43.5699060
   6.6846960  35.1966410  44.1036550  13.1661320  50.7789240  46.5771020
  13.1788480  50.3751530  45.7093280  12.6136540  51.5536530  46.4732450
  14.4606740  47.5005460  41.6661190  14.3503070  46.5579790  41.7910610
  14.4574990  47.8621100  42.5523950  12.5646760  45.6819080  47.9053630
  12.9815550  45.4679190  47.0707090  13.2886580  45.9391870  48.4762250
  10.0027020  43.1270780  41.0223680   9.0756300  43.0608160  41.2512150
  10.1551840  44.0650910  40.9078920   9.9896100  39.3987780  38.0190840
   9.0499770  39.5601740  38.1043300  10.3079360  40.1173460  37.4726830
  14.0324310  44.6891080  41.5258930  13.4136730  44.3510630  40.8785230
  14.0148760  44.0450840  42.2338120  13.4750870  40.8675620  48.9424740
  13.0622050  41.6929330  49.1964730  12.7426820  40.2820660  48.7501100
   5.6083660  43.6535520  43.8043410   5.2040660  42.9412770  43.3089310
   5.6946780  43.3088760  44.6931450   6.0765360  47.3403080  45.9682620
   5.7793650  46.7348550  45.2890400   7.0265180  47.3780390  45.8571980
   4.3212280  40.4278730  47.5842450   4.8726870  40.5374070  46.8095700
   4.8355790  40.8016330  48.2997680  14.1650970  50.9134950  49.6305720
  13.6881530  51.7207140  49.4378330  13.4812760  50.2613280  49.7831930
   5.1683790  47.0784770  52.6190420   4.2712320  47.3024740  52.8663820
   5.1936660  47.2019710  51.6701820  12.2089010  43.9277890  38.5331680
  12.6482290  43.0900320  38.3869500  12.9217430  44.5607290  38.6195820
   3.9955010  43.9498090  51.1947790   3.8562780  44.8220890  51.5635190
   3.1136370  43.6070900  51.0495730  10.3184390  48.8673960  42.5012920
  10.7580300  49.6098290  42.0868310  10.2571280  49.1100530  43.4251880
   5.7935360  49.8919790  53.4032940   5.7650790  50.2962740  52.5361370
   5.6300330  48.9630150  53.2404540  15.7906150  35.1820700  36.8472720
  15.4778810  35.2747530  37.7471790  16.5518620  35.7601730  36.7970150
   2.3088290  42.5480500  41.3050060   2.1885890  43.2742590  40.6931330
   1.9989180  41.7783410  40.8277970  17.7450180  50.6746890  54.6997110
  18.2209900  51.1529780  55.3786190  18.3657340  50.6064380  53.9742610
  11.0100170  51.5687740  50.4291930  11.5244840  51.4795750  51.2314360
  10.1669250  51.9147440  50.7219840  12.9854570  51.8543080  39.8575930
  12.8255710  51.5646020  40.7557760  12.8201280  51.0783210  39.3221160
   5.4642950  51.6341610  41.6347550   5.2885430  50.7177150  41.4215350
   4.6098690  51.9928900  41.8745350  12.6880700  49.3630640  38.4173930
  11.9945860  49.3607930  37.7576210  13.4303560  48.9389960  37.9868100
  12.2530630  50.9893350  42.4922420  12.7087580  50.2082730  42.8061040
  12.5923150  51.7000170  43.0363600  17.0007440  39.9192200  52.8246860
  16.3851710  40.4271870  52.2962320  16.6803860  39.0190530  52.7672800
   4.7751950  35.8915570  44.6873730   4.3320100  36.6725110  44.3558250
   5.3336940  36.2145460  45.3944670   9.0621760  38.7584090  50.2909050
   8.6001130  38.9667110  51.1028990   8.6599870  37.9443440  49.9879720
  14.0626270  39.9793040  51.4205710  13.2119860  39.6798790  51.7414780
  13.9028060  40.2235050  50.5089530  11.1575980  41.4794790  53.5204500
  11.4829390  40.6458540  53.1806730  11.9456310  42.0023310  53.6682830
   7.8910770  35.5126270  39.5679560   7.2664950  35.5086140  40.2932870
   7.8040890  34.6457230  39.1715530   6.8127850  36.4362900  46.5463330
   7.1100180  37.3425730  46.4655350   7.3613410  35.9481680  45.9322900
   4.5666170  41.0149140  42.4154980   4.3407090  40.7986310  43.3201600
   3.7858700  41.4477600  42.0700950  11.7963930  41.0212510  41.0145630
  11.1972820  41.7448310  40.8309250  12.3443540  40.9589290  40.2322080
   7.0065380  41.9134720  53.0815250   6.9108980  40.9729450  52.9315650
   7.8497360  42.1349790  52.6863320  10.4028800  39.6576050  43.0448910
  10.7958370  39.9748250  42.2317600  10.7645650  38.7787930  43.1593430
   8.7120970  38.4083360  54.3045770   8.0219290  38.2155560  54.9391860
   9.4553270  38.6918000  54.8370070  10.9883940  42.2481800  47.1399690
  10.2565060  42.7568610  47.4889790  10.5908280  41.4311780  46.8388470
   7.4261330  38.9236000  45.5452180   7.4297390  38.4825950  44.6956720
   8.3212450  39.2453330  45.6524000   3.2763710  38.8062490  44.5046390
   2.9363760  39.2837720  45.2613440   2.5141030  38.3527610  44.1447490
   7.4881480  39.9248080  38.5358940   7.6094300  39.8834560  39.4844760
   7.1029990  40.7872230  38.3805670  11.4509850  37.7015480  46.5522630
  11.4682590  38.1524130  47.3964480  11.2025430  36.8021120  46.7656070
   6.5002980  42.2349220  37.9342240   5.9319880  41.7867470  37.3078150
   7.2091980  42.5942000  37.4007390   7.7269300  42.9837780  47.2917590
   8.0939430  42.5096350  48.0378930   7.5374360  43.8579350  47.6325930
   5.5168670  42.0246420  49.6101800   5.2125740  42.9038400  49.8352160
   6.4715130  42.0846210  49.6459240   4.0450460  46.2307410  40.2068650
   3.2712720  45.6905030  40.0467370   4.7745090  45.7114020  39.8686410
  10.2648380  36.6210730  40.1424430   9.4512990  36.1223900  40.0669740
  10.0710330  37.4608980  39.7260780  10.1857240  45.2981830  51.8864040
  10.1194550  44.3777500  51.6321630   9.5562380  45.3957270  52.6008680
  12.9796770  40.9930380  38.4386590  13.8676390  41.3047610  38.2637930
  12.9501860  40.1202630  38.0467170   4.0887860  45.8987790  43.8447460
   4.6066530  45.0956050  43.7904350   3.6371880  45.8366930  44.6864290
   8.9757360  47.1654070  39.1174760   9.3173060  47.9096300  38.6218080
   8.1470070  47.4785190  39.4799590   4.7745520  43.3233400  53.6412710
   4.4745660  43.4690580  52.7440530   5.5456760  42.7638690  53.5486100
  10.1173970  48.1202400  51.6367840  10.1318510  47.1883360  51.4186750
   9.4099070  48.2062160  52.2757610  15.2511040  42.3042220  37.9066450
  15.1674760  42.7356440  37.0562890  15.9705230  42.7640570  38.3393270
  16.2798290  49.1584480  40.6348580  15.6374450  48.5040100  40.9092300
  15.8928950  49.5639570  39.8589250  11.8584770  46.4869910  44.4820270
  12.2108590  45.8898040  43.8221640  10.9747100  46.1614140  44.6528520
   7.9448050  47.2467600  41.8890680   8.6319180  47.7936810  42.2698270
   7.1580470  47.7908330  41.9240290   7.2475260  44.2513630  41.5016040
   7.7038040  45.0618880  41.7276230   6.8963470  43.9336770  42.3334530
   9.5507870  49.7619970  48.7308340  10.1950090  49.9679350  49.4081760
   9.9137310  49.0008370  48.2779190   3.1487040  34.5951280  41.9738560
   3.0201670  34.5869180  42.9223480   2.3249060  34.9334370  41.6229570
  10.8239950  47.7652320  47.4485790  11.4662180  47.0645480  47.5617960
  11.3489300  48.5450760  47.2682680  14.6695670  48.0500940  37.1724930
  14.4433250  47.3331380  37.7649570  14.2791870  47.8013380  36.3346680
  12.5977570  48.5647220  50.6521850  12.9333810  49.1513910  51.3299770
  11.6777910  48.4339930  50.8819640  14.2511920  45.9672880  38.8339090
  13.9633620  46.4285570  39.6216970  15.0464090  45.5070650  39.1023310
   8.4266150  48.6138550  53.8209910   8.1063020  47.8947790  54.3655600
   7.7524510  49.2893620  53.8945970   6.4680320  49.4599000  38.7643060
   6.4590420  50.1928690  38.1487570   5.5478680  49.2130580  38.8570020
  11.6419750  38.8464710  49.1846710  12.0100570  38.0259920  49.5126280
  10.7817950  38.9066600  49.6002360  15.0081780  37.8021650  39.9934270
  14.3794940  37.9067320  39.2792500  14.5133700  38.0218430  40.7828150
   9.4539920  49.5227240  37.4268250   9.5551900  49.3191230  36.4970230
   8.5541660  49.2685520  37.6316030   6.9765810  40.0807600  41.4092150
   6.2681960  40.5493940  41.8505760   7.2610290  39.4229610  42.0437340
   8.6021740  41.5004300  49.4084680   9.1006990  41.9750120  50.0736530
   8.7444690  40.5767820  49.6154710  11.0081240  36.8058260  42.8487940
  10.8849020  36.8244390  41.8997450  11.9565800  36.8537200  42.9686340
   8.0958030  52.0413560  42.1215920   8.3499530  52.0034950  41.1995290
   7.1470510  51.9146890  42.1144170   5.1800830  38.3892680  38.7842860
   6.0291360  38.8262830  38.7183050   4.8132100  38.7012940  39.6114920
  14.1010610  42.9605440  43.6974430  13.1600750  42.9755670  43.8722120
  14.4154680  42.1741400  44.1434730   4.0792250  44.6425040  37.2578390
   4.8455520  44.5306400  37.8203820   4.1566940  43.9463010  36.6055160
   2.7739010  42.0750110  37.9411280   2.8542600  41.1277620  38.0528680
   3.6658760  42.4056990  38.0471940   3.5753720  52.2245500  45.0445820
   4.3116200  51.6760960  45.3154390   3.9594640  53.0901510  44.9051810
   2.5812000  51.4091570  54.2331400   3.3824730  51.7303620  54.6466800
   2.0663820  51.0487150  54.9551310   6.6856030  51.3975810  36.8671390
   7.4784640  51.6864640  36.4153180   6.1660380  50.9667980  36.1883870
  11.4176630  47.5171440  54.1806810  10.8114790  47.5403040  53.4402560
  11.1130740  46.7854480  54.7174060  12.8477000  51.2451730  52.7916220
  13.7998750  51.1609750  52.7416460  12.7005220  51.9093440  53.4650010
  15.7386200  50.6245940  38.2908130  15.4527710  50.2111080  37.4762310
  15.5405750  51.5533650  38.1708650   7.2033430  46.6179220  36.7313740
   7.0984070  46.0031570  37.4575120   7.0357650  46.0945110  35.9476750
   7.3547750  45.3036020  52.7102970   6.5893420  45.8721020  52.6257640
   7.5363710  45.0112230  51.8171200  10.4436160  45.6799250  37.3355730
   9.8946260  46.1268550  37.9798470  11.0655420  45.1748500  37.8593400
  14.4971100  47.0341350  53.2677990  15.2380570  47.3717110  52.7645450
  13.7343780  47.2033410  52.7147760   2.3332890  42.0394620  54.0717520
   2.3738230  41.7408490  54.9802750   3.1878390  42.4402230  53.9125040
   6.1111280  44.6390170  39.2321030   6.5327700  44.4730040  40.0752420
   6.2362120  43.8290400  38.7376170   4.2738700  40.6186720  52.0392010
   3.7435160  40.1277670  51.4115350   4.9426770  41.0470920  51.5049940
   8.6238920  43.6627780  36.4798130   9.1444580  42.9476800  36.1139280
   9.2707320  44.3013650  36.7798640  13.1716760  45.0856180  51.8033200
  13.5857780  45.2401260  52.6523620  12.2367760  45.2111400  51.9658980
  13.6438930  42.4252340  53.8072350  14.2259700  41.6704660  53.7192830
  13.8200700  42.9559780  53.0303830   4.7611000  37.5849090  52.1189300
   4.6667870  36.9669840  51.3940170   4.1808390  38.3115380  51.8919210
   7.5272440  36.1422330  49.1516690   7.0789740  36.1646590  48.3062240
   6.8937640  35.7441350  49.7486990   7.9331990  45.0376660  49.7729130
   8.3520100  45.8809390  49.6005370   7.0140620  45.1748700  49.5435910
  10.2695890  42.7692840  51.1566970  10.3892100  42.1733980  51.8961810
  11.1289890  42.8062530  50.7368270  12.6083790  43.3230030  49.7329480
  12.0819010  43.8472650  49.1294620  12.9515130  43.9557420  50.3639210
   5.0070180  40.7123400  36.1779190   4.8059240  39.8490760  36.5392530
   4.8362230  40.6256760  35.2400790   5.7839410  51.3429670  50.8886860
   5.2460500  52.0675730  50.5695560   6.0373370  50.8660010  50.0984200
   7.0364660  39.3114190  52.4142790   7.6264350  39.0030040  53.1020610
   6.2184900  38.8393940  52.5702690  11.8558090  38.9280000  52.6475810
  11.1673610  38.2661540  52.5825800  12.5764110  38.4818270  53.0924270
  12.4858490  35.5231630  38.7066070  12.7660780  34.6799530  39.0625490
  11.7124220  35.7554740  39.2204820   3.8052980  37.8124020  36.1657070
   4.1078880  37.8191450  35.2576220   4.5447570  37.4621880  36.6624730
   8.6401620  52.5780880  51.1473510   8.5660320  53.4816020  51.4545880
   7.7380460  52.2592780  51.1195580   7.0237910  36.7558640  37.1513270
   6.6759910  36.0782630  36.5715720   7.2250680  36.2948150  37.9656660
   9.1886950  51.7439390  38.7699870  10.0837740  52.0824360  38.7918630
   9.2204580  51.0218800  38.1424150   2.8283110  47.1166440  36.9986870
   3.2657980  47.6596110  37.6544450   3.3130840  46.2913390  37.0083210
   4.6390830  48.2364480  42.1109100   4.3386370  48.1129450  43.0113010
   4.5328320  47.3773070  41.7024830  16.1681300  50.2743060  51.4766070
  15.5683290  50.3335620  50.7329990  16.2975200  49.3348040  51.6062920
  17.4082750  48.0160880  36.8135780  16.5775710  48.0837530  37.2843010
  17.5854580  48.9065000  36.5102640  14.8532940  46.9995040  49.5742230
  14.0392780  47.4292200  49.8368020  15.2607140  47.6113450  48.9611280
  16.9158380  45.0542730  36.4742500  17.1907220  45.9621610  36.3461720
  16.7269120  44.9905260  37.4104490  13.3133990  38.0787580  37.7696130
  13.7318870  37.8918560  36.9292790  13.0070050  37.2266630  38.0799060
  14.6411410  37.3639670  53.8791150  15.5181590  37.3723070  54.2625150
  14.6532250  36.6270510  53.2683500   1.7683000  35.6050090  36.4400000
   2.4911130  36.1459030  36.7581220   2.0407520  35.3313510  35.5641540
  15.5774650  40.4742560  40.7071580  16.0733770  40.2413430  41.4920460
  15.3790720  39.6354400  40.2909220  17.0061810  39.1103510  43.2409260
  16.8961090  38.9559550  44.1791530  17.7669400  38.5824450  42.9984670
  17.9690570  37.7122090  39.1072110  17.1742070  37.6467210  39.6365020
  18.1733850  38.6472730  39.0957460  14.9108990  51.7513640  43.1010500
  15.5068060  51.4298210  42.4244920  15.1687140  51.2785460  43.8923770
   2.8171560  48.1831550  53.2501130   2.7741190  47.8124460  54.1315590
   2.9482570  49.1209120  53.3902950   6.5177590  49.7391140  48.8510850
   6.2768950  50.0065700  47.9641370   7.4580230  49.9096870  48.9061710
   8.7232010  36.2023830  52.6067360   8.6620900  36.7945660  53.3562770
   9.6632390  36.0949790  52.4617620  11.3606570  35.8593890  52.2459650
  11.9746980  36.1773180  51.5840730  11.9056130  35.3742480  52.8655510
   1.8827830  34.5388150  52.3598710   2.4310820  34.3576200  51.5964820
   1.9483140  33.7482260  52.8955020   2.6559590  51.1293800  50.3698910
   2.0619910  50.9978500  51.1088950   2.6483430  50.2931940  49.9041010
  12.1014610  34.4226030  48.5728940  11.2274450  34.7561140  48.3701870
  11.9925360  33.9499210  49.3980810  13.0086590  36.6296900  49.9570660
  12.6799950  35.8148660  49.5772390  13.9568890  36.5866710  49.8336350
  15.4621200  52.4008940  46.9308230  15.0024170  53.1524750  46.5566250
  14.8333660  51.6815410  46.8723030   5.8916920  50.7097180  46.1056360
   6.4081940  50.0984540  45.5804620   6.5414300  51.2125960  46.5967370
   8.6312420  51.6005670  46.9325340   8.9190230  51.3459970  46.0558350
   9.1435640  51.0483030  47.5230910   9.8489430  35.3395870  47.5121850
   9.0661220  35.8141370  47.7918610   9.5552360  34.4350700  47.4035030
  14.4010500  36.0418970  45.5570940  14.8418590  35.9864070  44.7092540
  14.1318090  36.9576980  45.6281120  16.2649070  35.6734210  43.5679760
  16.2037470  34.7295430  43.4210780  17.0441100  35.7814300  44.1133220
   7.7343650  37.7582620  43.0237880   6.9218160  37.3839510  42.6833760
   8.2385290  37.0027700  43.3259070  12.2368630  34.4225070  44.2620950
  12.8398000  34.9945280  44.7369470  11.4961620  34.9864510  44.0394850
  15.3803230  34.8246630  39.5361230  15.5753860  35.7230080  39.8028660
  14.5933100  34.5933710  40.0294180   2.1764520  50.5059800  39.9753850
   1.6512140  50.8867830  39.2715810   2.1009100  51.1310570  40.6963560
   3.5654990  36.1707400  38.5737540   4.0947750  35.3837200  38.4445490
   4.1983310  36.8498590  38.8073070   5.7592830  35.9082540  41.6282930
   5.1295570  35.2069850  41.7953060   5.2197970  36.6686670  41.4116090
   8.6984780  52.5221770  54.2993540   9.6252090  52.2866040  54.3429500
   8.6835210  53.3493770  53.8179570  16.9329840  52.0647340  41.2967790
  17.1082030  51.3785080  40.6528710  16.2351410  52.5894390  40.9044460
   5.8848390  35.1866520  54.0635420   5.6032660  35.6900120  53.2996240
   6.2668090  34.3888270  53.6977550   4.7757490  52.4542180  38.8503100
   5.5076310  52.1701460  38.3026990   5.0351160  52.2155460  39.7402480
   3.9372280  48.5706910  38.8549430   3.3081160  49.0392010  39.4035260
   4.0520110  47.7256130  39.2895620  15.2662340  51.7491630  54.1234580
  16.0587660  51.2540860  53.9160540  15.5595490  52.4281770  54.7310190
  11.3922000  42.6212570  25.0050630  11.3116050  41.7067180  24.7342340
  10.9786420  43.1179640  24.2990340   9.5240040  44.3991590  26.8859900
   8.7482140  43.9192030  27.1758470  10.1752970  43.7197240  26.7116060
   3.5405870  44.7111400  27.7635660   2.7090750  44.4560110  28.1632170
   4.1486850  44.7822170  28.4993580  13.5447470  48.8051780  25.6659030
  13.0829000  48.0339020  25.9946200  14.3573020  48.8317850  26.1711480
   3.5207130  48.7451490  27.9593680   3.8235170  47.8549230  27.7803900
   4.2650720  49.3021710  27.7315930   9.7710780  51.0909790  25.2863020
   9.1522220  51.5467290  24.7157460  10.6262560  51.2461250  24.8852720
   8.9649030  47.0748780  26.8930060   8.8957310  46.1338720  26.7319190
   9.7268890  47.1650190  27.4652630   9.9954200  39.8819160  27.1198990
  10.3719020  39.0091040  27.0072660   9.8973710  40.2177860  26.2289430
   4.1259210  38.2544790  22.5816430   4.2325960  39.1548520  22.8885190
   3.2151570  38.2062760  22.2911080  13.7778320  37.3769600  24.0527330
  14.5987940  36.8866170  24.0952810  13.8112400  37.9667260  24.8059170
   5.9666940  41.2231160  26.9141610   6.4745160  41.7212130  27.5546630
   6.4980180  40.4466360  26.7380970  18.0677870  39.3936350  30.6170960
  17.3630040  39.7818060  30.0986070  18.3335790  40.0886640  31.2191890
   4.2503040  35.8629720  31.1805030   4.2521480  36.3802110  30.3750930
   3.4207350  35.3859900  31.1574960  10.6374130  45.9749030  22.6794930
  10.0191400  46.4398480  22.1157650  11.1497380  46.6676510  23.0964440
   5.5005890  45.5024900  29.3578530   5.1675270  46.1293820  29.9999600
   5.6772570  46.0286780  28.5780200  14.0139800  39.3169980  26.8254870
  13.3095370  39.6054870  27.4057980  14.3751960  40.1270090  26.4654430
   3.9318370  37.5739680  29.1875480   4.2735180  38.4181730  28.8929350
   2.9934180  37.7223420  29.3040820   4.7124990  47.4705700  31.1727710
   5.3298990  48.1456780  30.8912160   3.8518110  47.8793680  31.0815210
  15.6302580  48.9345110  29.0882350  14.9466100  49.6044220  29.0799020
  16.1696870  49.1325760  28.3227210  17.0826720  38.7624770  27.2164080
  16.1351630  38.7963750  27.3479510  17.4076710  39.5763720  27.6013440
   7.6146260  35.0621950  25.5120070   7.9221240  34.5068840  24.7955570
   6.6846960  35.1966410  25.3293060  13.1661320  50.7789240  27.8027530
  13.1788480  50.3751530  26.9349790  12.6136540  51.5536530  27.6988960
  14.4606740  47.5005460  22.8917700  14.3503070  46.5579790  23.0167120
  14.4574990  47.8621100  23.7780460  12.5646760  45.6819080  29.1310140
  12.9815550  45.4679190  28.2963600  13.2886580  45.9391870  29.7018760
  10.0027020  43.1270780  22.2480190   9.0756300  43.0608160  22.4768660
  10.1551840  44.0650910  22.1335430   9.9896100  39.3987780  19.2447350
   9.0499770  39.5601740  19.3299810  10.3079360  40.1173460  18.6983340
  16.5108860  44.0806300  29.2226380  15.6827490  44.1499390  28.7476510
  17.1059340  44.6660610  28.7542210  14.0324310  44.6891080  22.7515440
  13.4136730  44.3510630  22.1041740  14.0148760  44.0450840  23.4594630
  13.4750870  40.8675620  30.1681250  13.0622050  41.6929330  30.4221240
  12.7426820  40.2820660  29.9757610   5.6083660  43.6535520  25.0299920
   5.2040660  42.9412770  24.5345820   5.6946780  43.3088760  25.9187960
   6.0765360  47.3403080  27.1939130   5.7793650  46.7348550  26.5146910
   7.0265180  47.3780390  27.0828490   4.3212280  40.4278730  28.8098960
   4.8726870  40.5374070  28.0352210   4.8355790  40.8016330  29.5254190
  14.1650970  50.9134950  30.8562230  13.6881530  51.7207140  30.6634840
  13.4812760  50.2613280  31.0088440   5.1683790  47.0784770  33.8446930
   4.2712320  47.3024740  34.0920330   5.1936660  47.2019710  32.8958330
  12.2089010  43.9277890  19.7588190  12.6482290  43.0900320  19.6126010
  12.9217430  44.5607290  19.8452330   3.9955010  43.9498090  32.4204300
   3.8562780  44.8220890  32.7891700   3.1136370  43.6070900  32.2752240
  10.3184390  48.8673960  23.7269430  10.7580300  49.6098290  23.3124820
  10.2571280  49.1100530  24.6508390   5.7935360  49.8919790  34.6289450
   5.7650790  50.2962740  33.7617880   5.6300330  48.9630150  34.4661050
  15.7906150  35.1820700  18.0729230  15.4778810  35.2747530  18.9728300
  16.5518620  35.7601730  18.0226660   2.3088290  42.5480500  22.5306570
   2.1885890  43.2742590  21.9187840   1.9989180  41.7783410  22.0534480
  17.7450180  50.6746890  35.9253620  18.2209900  51.1529780  36.6042700
  18.3657340  50.6064380  35.1999120  17.1483430  47.8659740  33.0853630
  17.2746490  47.6271620  32.1670810  17.1904810  47.0344280  33.5575710
  11.0100170  51.5687740  31.6548440  11.5244840  51.4795750  32.4570870
  10.1669250  51.9147440  31.9476350  12.9854570  51.8543080  21.0832440
  12.8255710  51.5646020  21.9814270  12.8201280  51.0783210  20.5477670
   5.4642950  51.6341610  22.8604060   5.2885430  50.7177150  22.6471860
   4.6098690  51.9928900  23.1001860  12.6880700  49.3630640  19.6430440
  11.9945860  49.3607930  18.9832720  13.4303560  48.9389960  19.2124610
  12.2530630  50.9893350  23.7178930  12.7087580  50.2082730  24.0317550
  12.5923150  51.7000170  24.2620110  17.0007440  39.9192200  34.0503370
  16.3851710  40.4271870  33.5218830  16.6803860  39.0190530  33.9929310
   4.7751950  35.8915570  25.9130240   4.3320100  36.6725110  25.5814760
   5.3336940  36.2145460  26.6201180   9.0621760  38.7584090  31.5165560
   8.6001130  38.9667110  32.3285500   8.6599870  37.9443440  31.2136230
  14.0626270  39.9793040  32.6462220  13.2119860  39.6798790  32.9671290
  13.9028060  40.2235050  31.7346040  11.1575980  41.4794790  34.7461010
  11.4829390  40.6458540  34.4063240  11.9456310  42.0023310  34.8939340
   7.8910770  35.5126270  20.7936070   7.2664950  35.5086140  21.5189380
   7.8040890  34.6457230  20.3972040   6.8127850  36.4362900  27.7719840
   7.1100180  37.3425730  27.6911860   7.3613410  35.9481680  27.1579410
   4.5666170  41.0149140  23.6411490   4.3407090  40.7986310  24.5458110
   3.7858700  41.4477600  23.2957460  11.7963930  41.0212510  22.2402140
  11.1972820  41.7448310  22.0565760  12.3443540  40.9589290  21.4578590
   7.0065380  41.9134720  34.3071760   6.9108980  40.9729450  34.1572160
   7.8497360  42.1349790  33.9119830  10.4028800  39.6576050  24.2705420
  10.7958370  39.9748250  23.4574110  10.7645650  38.7787930  24.3849940
   8.7120970  38.4083360  35.5302280   8.0219290  38.2155560  36.1648370
   9.4553270  38.6918000  36.0626580  10.9883940  42.2481800  28.3656200
  10.2565060  42.7568610  28.7146300  10.5908280  41.4311780  28.0644980
   7.4261330  38.9236000  26.7708690   7.4297390  38.4825950  25.9213230
   8.3212450  39.2453330  26.8780510   3.2763710  38.8062490  25.7302900
   2.9363760  39.2837720  26.4869950   2.5141030  38.3527610  25.3704000
   7.4881480  39.9248080  19.7615450   7.6094300  39.8834560  20.7101270
   7.1029990  40.7872230  19.6062180  11.4509850  37.7015480  27.7779140
  11.4682590  38.1524130  28.6220990  11.2025430  36.8021120  27.9912580
   6.5002980  42.2349220  19.1598750   5.9319880  41.7867470  18.5334660
   7.2091980  42.5942000  18.6263900  14.8780600  35.1147660  33.6165520
  15.2026370  34.3837320  34.1423500  14.9137110  34.7961300  32.7146510
   7.7269300  42.9837780  28.5174100   8.0939430  42.5096350  29.2635440
   7.5374360  43.8579350  28.8582440   5.5168670  42.0246420  30.8358310
   5.2125740  42.9038400  31.0608670   6.4715130  42.0846210  30.8715750
   4.0450460  46.2307410  21.4325160   3.2712720  45.6905030  21.2723880
   4.7745090  45.7114020  21.0942920  14.8038440  45.2272770  27.2251550
  15.5237560  45.7228060  26.8347660  14.6020260  44.5490660  26.5805420
  10.2648380  36.6210730  21.3680940   9.4512990  36.1223900  21.2926250
  10.0710330  37.4608980  20.9517290  10.1857240  45.2981830  33.1120550
  10.1194550  44.3777500  32.8578140   9.5562380  45.3957270  33.8265190
  12.9796770  40.9930380  19.6643100  13.8676390  41.3047610  19.4894440
  12.9501860  40.1202630  19.2723680   4.0887860  45.8987790  25.0703970
   4.6066530  45.0956050  25.0160860   3.6371880  45.8366930  25.9120800
   8.9757360  47.1654070  20.3431270   9.3173060  47.9096300  19.8474590
   8.1470070  47.4785190  20.7056100   4.7745520  43.3233400  34.8669220
   4.4745660  43.4690580  33.9697040   5.5456760  42.7638690  34.7742610
  10.1173970  48.1202400  32.8624350  10.1318510  47.1883360  32.6443260
   9.4099070  48.2062160  33.5014120  15.2511040  42.3042220  19.1322960
  15.1674760  42.7356440  18.2819400  15.9705230  42.7640570  19.5649780
  16.3285180  44.7609740  32.2092930  15.6033370  45.3538520  32.0122320
  16.8560640  44.7533280  31.4106300  16.2798290  49.1584480  21.8605090
  15.6374450  48.5040100  22.1348810  15.8928950  49.5639570  21.0845760
  11.8584770  46.4869910  25.7076780  12.2108590  45.8898040  25.0478150
  10.9747100  46.1614140  25.8785030   7.9448050  47.2467600  23.1147190
   8.6319180  47.7936810  23.4954780   7.1580470  47.7908330  23.1496800
   7.2475260  44.2513630  22.7272550   7.7038040  45.0618880  22.9532740
   6.8963470  43.9336770  23.5591040   9.5507870  49.7619970  29.9564850
  10.1950090  49.9679350  30.6338270   9.9137310  49.0008370  29.5035700
   3.1487040  34.5951280  23.1995070   3.0201670  34.5869180  24.1479990
   2.3249060  34.9334370  22.8486080  10.8239950  47.7652320  28.6742300
  11.4662180  47.0645480  28.7874470  11.3489300  48.5450760  28.4939190
  14.6695670  48.0500940  18.3981440  14.4433250  47.3331380  18.9906080
  14.2791870  47.8013380  17.5603190  12.5977570  48.5647220  31.8778360
  12.9333810  49.1513910  32.5556280  11.6777910  48.4339930  32.1076150
  14.2511920  45.9672880  20.0595600  13.9633620  46.4285570  20.8473480
  15.0464090  45.5070650  20.3279820   8.4266150  48.6138550  35.0466420
   8.1063020  47.8947790  35.5912110   7.7524510  49.2893620  35.1202480
   6.4680320  49.4599000  19.9899570   6.4590420  50.1928690  19.3744080
   5.5478680  49.2130580  20.0826530  11.6419750  38.8464710  30.4103220
  12.0100570  38.0259920  30.7382790  10.7817950  38.9066600  30.8258870
  15.0081780  37.8021650  21.2190780  14.3794940  37.9067320  20.5049010
  14.5133700  38.0218430  22.0084660   9.4539920  49.5227240  18.6524760
   9.5551900  49.3191230  17.7226740   8.5541660  49.2685520  18.8572540
   6.9765810  40.0807600  22.6348660   6.2681960  40.5493940  23.0762270
   7.2610290  39.4229610  23.2693850   8.6021740  41.5004300  30.6341190
   9.1006990  41.9750120  31.2993040   8.7444690  40.5767820  30.8411220
  11.0081240  36.8058260  24.0744450  10.8849020  36.8244390  23.1253960
  11.9565800  36.8537200  24.1942850   8.0958030  52.0413560  23.3472430
   8.3499530  52.0034950  22.4251800   7.1470510  51.9146890  23.3400680
   5.1800830  38.3892680  20.0099370   6.0291360  38.8262830  19.9439560
   4.8132100  38.7012940  20.8371430  15.8088600  37.7172260  31.4769580
  15.3062200  38.4577660  31.8163390  16.6245260  38.1056260  31.1606370
  14.1010610  42.9605440  24.9230940  13.1600750  42.9755670  25.0978630
  14.4154680  42.1741400  25.3691240   4.0792250  44.6425040  18.4834900
   4.8455520  44.5306400  19.0460330   4.1566940  43.9463010  17.8311670
   2.7739010  42.0750110  19.1667790   2.8542600  41.1277620  19.2785190
   3.6658760  42.4056990  19.2728450  16.1036190  50.1314290  26.5985200
  16.2283610  50.9545460  27.0709010  16.9701750  49.9205020  26.2509350
   3.5753720  52.2245500  26.2702330   4.3116200  51.6760960  26.5410900
   3.9594640  53.0901510  26.1308320   2.5812000  51.4091570  35.4587910
   3.3824730  51.7303620  35.8723310   2.0663820  51.0487150  36.1807820
   6.6856030  51.3975810  18.0927900   7.4784640  51.6864640  17.6409690
   6.1660380  50.9667980  17.4140380  11.4176630  47.5171440  35.4063320
  10.8114790  47.5403040  34.6659070  11.1130740  46.7854480  35.9430570
  12.8477000  51.2451730  34.0172730  13.7998750  51.1609750  33.9672970
  12.7005220  51.9093440  34.6906520  15.7386200  50.6245940  19.5164640
  15.4527710  50.2111080  18.7018820  15.5405750  51.5533650  19.3965160
   7.2033430  46.6179220  17.9570250   7.0984070  46.0031570  18.6831630
   7.0357650  46.0945110  17.1733260   7.3547750  45.3036020  33.9359480
   6.5893420  45.8721020  33.8514150   7.5363710  45.0112230  33.0427710
  10.4436160  45.6799250  18.5612240   9.8946260  46.1268550  19.2054980
  11.0655420  45.1748500  19.0849910  14.4971100  47.0341350  34.4934500
  15.2380570  47.3717110  33.9901960  13.7343780  47.2033410  33.9404270
   2.3332890  42.0394620  35.2974030   2.3738230  41.7408490  36.2059260
   3.1878390  42.4402230  35.1381550   6.1111280  44.6390170  20.4577540
   6.5327700  44.4730040  21.3008930   6.2362120  43.8290400  19.9632680
   4.2738700  40.6186720  33.2648520   3.7435160  40.1277670  32.6371860
   4.9426770  41.0470920  32.7306450   8.6238920  43.6627780  17.7054640
   9.1444580  42.9476800  17.3395790   9.2707320  44.3013650  18.0055150
  13.1716760  45.0856180  33.0289710  13.5857780  45.2401260  33.8780130
  12.2367760  45.2111400  33.1915490  13.6438930  42.4252340  35.0328860
  14.2259700  41.6704660  34.9449340  13.8200700  42.9559780  34.2560340
   4.7611000  37.5849090  33.3445810   4.6667870  36.9669840  32.6196680
   4.1808390  38.3115380  33.1175720   7.5272440  36.1422330  30.3773200
   7.0789740  36.1646590  29.5318750   6.8937640  35.7441350  30.9743500
   7.9331990  45.0376660  30.9985640   8.3520100  45.8809390  30.8261880
   7.0140620  45.1748700  30.7692420  10.2695890  42.7692840  32.3823480
  10.3892100  42.1733980  33.1218320  11.1289890  42.8062530  31.9624780
  12.6083790  43.3230030  30.9585990  12.0819010  43.8472650  30.3551130
  12.9515130  43.9557420  31.5895720   5.0070180  40.7123400  17.4035700
   4.8059240  39.8490760  17.7649040   4.8362230  40.6256760  16.4657300
   5.7839410  51.3429670  32.1143370   5.2460500  52.0675730  31.7952070
   6.0373370  50.8660010  31.3240710   7.0364660  39.3114190  33.6399300
   7.6264350  39.0030040  34.3277120   6.2184900  38.8393940  33.7959200
  11.8558090  38.9280000  33.8732320  11.1673610  38.2661540  33.8082310
  12.5764110  38.4818270  34.3180780  12.4858490  35.5231630  19.9322580
  12.7660780  34.6799530  20.2882000  11.7124220  35.7554740  20.4461330
   3.8052980  37.8124020  17.3913580   4.1078880  37.8191450  16.4832730
   4.5447570  37.4621880  17.8881240   8.6401620  52.5780880  32.3730020
   8.5660320  53.4816020  32.6802390   7.7380460  52.2592780  32.3452090
   7.0237910  36.7558640  18.3769780   6.6759910  36.0782630  17.7972230
   7.2250680  36.2948150  19.1913170   9.1886950  51.7439390  19.9956380
  10.0837740  52.0824360  20.0175140   9.2204580  51.0218800  19.3680660
   2.8283110  47.1166440  18.2243380   3.2657980  47.6596110  18.8800960
   3.3130840  46.2913390  18.2339720   4.6390830  48.2364480  23.3365610
   4.3386370  48.1129450  24.2369520   4.5328320  47.3773070  22.9281340
  16.1681300  50.2743060  32.7022580  15.5683290  50.3335620  31.9586500
  16.2975200  49.3348040  32.8319430  17.4082750  48.0160880  18.0392290
  16.5775710  48.0837530  18.5099520  17.5854580  48.9065000  17.7359150
  16.8639210  44.7608360  20.5426490  17.6258120  45.3305010  20.6486180
  16.8793580  44.1935560  21.3134800  17.8699180  45.6158460  25.3868420
  18.2408010  44.8325780  24.9804390  18.5101110  46.3047560  25.2085720
  14.8532940  46.9995040  30.7998740  14.0392780  47.4292200  31.0624530
  15.2607140  47.6113450  30.1867790  16.9158380  45.0542730  17.6999010
  17.1907220  45.9621610  17.5718230  16.7269120  44.9905260  18.6361000
  13.3133990  38.0787580  18.9952640  13.7318870  37.8918560  18.1549300
  13.0070050  37.2266630  19.3055570  16.8123720  42.9911720  22.6928440
  16.4367320  42.2239650  22.2609730  16.0826840  43.3734420  23.1803370
  16.2023340  42.1383240  32.3267960  15.9709430  41.9095990  31.4265910
  16.4627890  43.0582790  32.2812850  14.6411410  37.3639670  35.1047660
  15.5181590  37.3723070  35.4881660  14.6532250  36.6270510  34.4940010
  16.0874680  41.2169210  25.9935680  16.6112160  40.7231860  25.3625850
  16.6734100  41.3519570  26.7383250  16.2664400  41.3009080  29.5155230
  15.3167110  41.2672620  29.6300220  16.4477410  42.2109190  29.2805000
   1.7683000  35.6050090  17.6656510   2.4911130  36.1459030  17.9837730
   2.0407520  35.3313510  16.7898050  15.5774650  40.4742560  21.9328090
  16.0733770  40.2413430  22.7176970  15.3790720  39.6354400  21.5165730
  17.0061810  39.1103510  24.4665770  16.8961090  38.9559550  25.4048040
  17.7669400  38.5824450  24.2241180  15.3527530  35.0497640  30.9248770
  15.9899750  35.6631780  31.2907960  15.5002420  35.0858300  29.9798000
  17.8952080  36.9411430  17.7071910  18.8201390  36.8092610  17.4990200
  17.8727870  37.0204250  18.6608360  17.9690570  37.7122090  20.3328620
  17.1742070  37.6467210  20.8621530  18.1733850  38.6472730  20.3213970
  14.9108990  51.7513640  24.3267010  15.5068060  51.4298210  23.6501430
  15.1687140  51.2785460  25.1180280   2.8171560  48.1831550  34.4757640
   2.7741190  47.8124460  35.3572100   2.9482570  49.1209120  34.6159460
   6.5177590  49.7391140  30.0767360   6.2768950  50.0065700  29.1897880
   7.4580230  49.9096870  30.1318220   8.7232010  36.2023830  33.8323870
   8.6620900  36.7945660  34.5819280   9.6632390  36.0949790  33.6874130
  11.3606570  35.8593890  33.4716160  11.9746980  36.1773180  32.8097240
  11.9056130  35.3742480  34.0912020  17.7781750  51.7585520  30.8778000
  17.2840030  52.1554390  30.1605130  17.1695040  51.1334730  31.2715280
   1.8827830  34.5388150  33.5855220   2.4310820  34.3576200  32.8221330
   1.9483140  33.7482260  34.1211530   2.6559590  51.1293800  31.5955420
   2.0619910  50.9978500  32.3345460   2.6483430  50.2931940  31.1297520
  12.1014610  34.4226030  29.7985450  11.2274450  34.7561140  29.5958380
  11.9925360  33.9499210  30.6237320  13.0086590  36.6296900  31.1827170
  12.6799950  35.8148660  30.8028900  13.9568890  36.5866710  31.0592860
  15.4621200  52.4008940  28.1564740  15.0024170  53.1524750  27.7822760
  14.8333660  51.6815410  28.0979540   5.8916920  50.7097180  27.3312870
   6.4081940  50.0984540  26.8061130   6.5414300  51.2125960  27.8223880
   8.6312420  51.6005670  28.1581850   8.9190230  51.3459970  27.2814860
   9.1435640  51.0483030  28.7487420   9.8489430  35.3395870  28.7378360
   9.0661220  35.8141370  29.0175120   9.5552360  34.4350700  28.6291540
  14.4010500  36.0418970  26.7827450  14.8418590  35.9864070  25.9349050
  14.1318090  36.9576980  26.8537630  16.2649070  35.6734210  24.7936270
  16.2037470  34.7295430  24.6467290  17.0441100  35.7814300  25.3389730
   7.7343650  37.7582620  24.2494390   6.9218160  37.3839510  23.9090270
   8.2385290  37.0027700  24.5515580  12.2368630  34.4225070  25.4877460
  12.8398000  34.9945280  25.9625980  11.4961620  34.9864510  25.2651360
  15.3803230  34.8246630  20.7617740  15.5753860  35.7230080  21.0285170
  14.5933100  34.5933710  21.2550690   2.1764520  50.5059800  21.2010360
   1.6512140  50.8867830  20.4972320   2.1009100  51.1310570  21.9220070
   3.5654990  36.1707400  19.7994050   4.0947750  35.3837200  19.6702000
   4.1983310  36.8498590  20.0329580   5.7592830  35.9082540  22.8539440
   5.1295570  35.2069850  23.0209570   5.2197970  36.6686670  22.6372600
   8.6984780  52.5221770  35.5250050   9.6252090  52.2866040  35.5686010
   8.6835210  53.3493770  35.0436080  16.9329840  52.0647340  22.5224300
  17.1082030  51.3785080  21.8785220  16.2351410  52.5894390  22.1300970
   5.8848390  35.1866520  35.2891930   5.6032660  35.6900120  34.5252750
   6.2668090  34.3888270  34.9234060   4.7757490  52.4542180  20.0759610
   5.5076310  52.1701460  19.5283500   5.0351160  52.2155460  20.9658990
   3.9372280  48.5706910  20.0805940   3.3081160  49.0392010  20.6291770
   4.0520110  47.7256130  20.5152130  12.4863850  34.6020100  35.8672400
  12.3729300  34.9214710  36.7623920  13.3033590  35.0032610  35.5709680
  15.2662340  51.7491630  35.3491090  16.0587660  51.2540860  35.1417050
  15.5595490  52.4281770  35.9566700  11.3922000  42.6212570   6.2307140
  11.3116050  41.7067180   5.9598850  10.9786420  43.1179640   5.5246850
   9.5240040  44.3991590   8.1116410   8.7482140  43.9192030   8.4014980
  10.1752970  43.7197240   7.9372570   3.5405870  44.7111400   8.9892170
   2.7090750  44.4560110   9.3888680   4.1486850  44.7822170   9.7250090
  13.5447470  48.8051780   6.8915540  13.0829000  48.0339020   7.2202710
  14.3573020  48.8317850   7.3967990   3.5207130  48.7451490   9.1850190
   3.8235170  47.8549230   9.0060410   4.2650720  49.3021710   8.9572440
   9.7710780  51.0909790   6.5119530   9.1522220  51.5467290   5.9413970
  10.6262560  51.2461250   6.1109230   8.9649030  47.0748780   8.1186570
   8.8957310  46.1338720   7.9575700   9.7268890  47.1650190   8.6909140
   9.9954200  39.8819160   8.3455500  10.3719020  39.0091040   8.2329170
   9.8973710  40.2177860   7.4545940   4.1259210  38.2544790   3.8072940
   4.2325960  39.1548520   4.1141700   3.2151570  38.2062760   3.5167590
  13.7778320  37.3769600   5.2783840  14.5987940  36.8866170   5.3209320
  13.8112400  37.9667260   6.0315680   5.9666940  41.2231160   8.1398120
   6.4745160  41.7212130   8.7803140   6.4980180  40.4466360   7.9637480
  18.0677870  39.3936350  11.8427470  17.3630040  39.7818060  11.3242580
  18.3335790  40.0886640  12.4448400   4.2503040  35.8629720  12.4061540
   4.2521480  36.3802110  11.6007440   3.4207350  35.3859900  12.3831470
  10.6374130  45.9749030   3.9051440  10.0191400  46.4398480   3.3414160
  11.1497380  46.6676510   4.3220950   5.5005890  45.5024900  10.5835040
   5.1675270  46.1293820  11.2256110   5.6772570  46.0286780   9.8036710
  14.0139800  39.3169980   8.0511380  13.3095370  39.6054870   8.6314490
  14.3751960  40.1270090   7.6910940   3.9318370  37.5739680  10.4131990
   4.2735180  38.4181730  10.1185860   2.9934180  37.7223420  10.5297330
   4.7124990  47.4705700  12.3984220   5.3298990  48.1456780  12.1168670
   3.8518110  47.8793680  12.3071720  15.6302580  48.9345110  10.3138860
  14.9466100  49.6044220  10.3055530  16.1696870  49.1325760   9.5483720
  17.0826720  38.7624770   8.4420590  16.1351630  38.7963750   8.5736020
  17.4076710  39.5763720   8.8269950   7.6146260  35.0621950   6.7376580
   7.9221240  34.5068840   6.0212080   6.6846960  35.1966410   6.5549570
  13.1661320  50.7789240   9.0284040  13.1788480  50.3751530   8.1606300
  12.6136540  51.5536530   8.9245470  14.4606740  47.5005460   4.1174210
  14.3503070  46.5579790   4.2423630  14.4574990  47.8621100   5.0036970
  12.5646760  45.6819080  10.3566650  12.9815550  45.4679190   9.5220110
  13.2886580  45.9391870  10.9275270  10.0027020  43.1270780   3.4736700
   9.0756300  43.0608160   3.7025170  10.1551840  44.0650910   3.3591940
  16.5108860  44.0806300  10.4482890  15.6827490  44.1499390   9.9733020
  17.1059340  44.6660610   9.9798720  14.0324310  44.6891080   3.9771950
  13.4136730  44.3510630   3.3298250  14.0148760  44.0450840   4.6851140
  13.4750870  40.8675620  11.3937760  13.0622050  41.6929330  11.6477750
  12.7426820  40.2820660  11.2014120   5.6083660  43.6535520   6.2556430
   5.2040660  42.9412770   5.7602330   5.6946780  43.3088760   7.1444470
   6.0765360  47.3403080   8.4195640   5.7793650  46.7348550   7.7403420
   7.0265180  47.3780390   8.3085000   4.3212280  40.4278730  10.0355470
   4.8726870  40.5374070   9.2608720   4.8355790  40.8016330  10.7510700
  14.1650970  50.9134950  12.0818740  13.6881530  51.7207140  11.8891350
  13.4812760  50.2613280  12.2344950   5.1683790  47.0784770  15.0703440
   4.2712320  47.3024740  15.3176840   5.1936660  47.2019710  14.1214840
   3.9955010  43.9498090  13.6460810   3.8562780  44.8220890  14.0148210
   3.1136370  43.6070900  13.5008750  10.3184390  48.8673960   4.9525940
  10.7580300  49.6098290   4.5381330  10.2571280  49.1100530   5.8764900
   5.7935360  49.8919790  15.8545960   5.7650790  50.2962740  14.9874390
   5.6300330  48.9630150  15.6917560   2.3088290  42.5480500   3.7563080
   2.1885890  43.2742590   3.1444350   1.9989180  41.7783410   3.2790990
  17.7450180  50.6746890  17.1510130  18.2209900  51.1529780  17.8299210
  18.3657340  50.6064380  16.4255630  17.1483430  47.8659740  14.3110140
  17.2746490  47.6271620  13.3927320  17.1904810  47.0344280  14.7832220
  11.0100170  51.5687740  12.8804950  11.5244840  51.4795750  13.6827380
  10.1669250  51.9147440  13.1732860  12.9854570  51.8543080   2.3088950
  12.8255710  51.5646020   3.2070780  12.8201280  51.0783210   1.7734180
   5.4642950  51.6341610   4.0860570   5.2885430  50.7177150   3.8728370
   4.6098690  51.9928900   4.3258370  12.2530630  50.9893350   4.9435440
  12.7087580  50.2082730   5.2574060  12.5923150  51.7000170   5.4876620
  17.0007440  39.9192200  15.2759880  16.3851710  40.4271870  14.7475340
  16.6803860  39.0190530  15.2185820   4.7751950  35.8915570   7.1386750
   4.3320100  36.6725110   6.8071270   5.3336940  36.2145460   7.8457690
   9.0621760  38.7584090  12.7422070   8.6001130  38.9667110  13.5542010
   8.6599870  37.9443440  12.4392740  14.0626270  39.9793040  13.8718730
  13.2119860  39.6798790  14.1927800  13.9028060  40.2235050  12.9602550
  11.1575980  41.4794790  15.9717520  11.4829390  40.6458540  15.6319750
  11.9456310  42.0023310  16.1195850   6.8127850  36.4362900   8.9976350
   7.1100180  37.3425730   8.9168370   7.3613410  35.9481680   8.3835920
   4.5666170  41.0149140   4.8668000   4.3407090  40.7986310   5.7714620
   3.7858700  41.4477600   4.5213970  11.7963930  41.0212510   3.4658650
  11.1972820  41.7448310   3.2822270  12.3443540  40.9589290   2.6835100
   7.0065380  41.9134720  15.5328270   6.9108980  40.9729450  15.3828670
   7.8497360  42.1349790  15.1376340  10.4028800  39.6576050   5.4961930
  10.7958370  39.9748250   4.6830620  10.7645650  38.7787930   5.6106450
   8.7120970  38.4083360  16.7558790   8.0219290  38.2155560  17.3904880
   9.4553270  38.6918000  17.2883090  10.9883940  42.2481800   9.5912710
  10.2565060  42.7568610   9.9402810  10.5908280  41.4311780   9.2901490
   7.4261330  38.9236000   7.9965200   7.4297390  38.4825950   7.1469740
   8.3212450  39.2453330   8.1037020   3.2763710  38.8062490   6.9559410
   2.9363760  39.2837720   7.7126460   2.5141030  38.3527610   6.5960510
  11.4509850  37.7015480   9.0035650  11.4682590  38.1524130   9.8477500
  11.2025430  36.8021120   9.2169090  14.8780600  35.1147660  14.8422030
  15.2026370  34.3837320  15.3680010  14.9137110  34.7961300  13.9403020
   7.7269300  42.9837780   9.7430610   8.0939430  42.5096350  10.4891950
   7.5374360  43.8579350  10.0838950   5.5168670  42.0246420  12.0614820
   5.2125740  42.9038400  12.2865180   6.4715130  42.0846210  12.0972260
   4.0450460  46.2307410   2.6581670   3.2712720  45.6905030   2.4980390
   4.7745090  45.7114020   2.3199430  14.8038440  45.2272770   8.4508060
  15.5237560  45.7228060   8.0604170  14.6020260  44.5490660   7.8061930
  10.2648380  36.6210730   2.5937450   9.4512990  36.1223900   2.5182760
  10.0710330  37.4608980   2.1773800  10.1857240  45.2981830  14.3377060
  10.1194550  44.3777500  14.0834650   9.5562380  45.3957270  15.0521700
   4.0887860  45.8987790   6.2960480   4.6066530  45.0956050   6.2417370
   3.6371880  45.8366930   7.1377310   4.7745520  43.3233400  16.0925730
   4.4745660  43.4690580  15.1953550   5.5456760  42.7638690  15.9999120
  10.1173970  48.1202400  14.0880860  10.1318510  47.1883360  13.8699770
   9.4099070  48.2062160  14.7270630  16.3285180  44.7609740  13.4349440
  15.6033370  45.3538520  13.2378830  16.8560640  44.7533280  12.6362810
  16.2798290  49.1584480   3.0861600  15.6374450  48.5040100   3.3605320
  15.8928950  49.5639570   2.3102270  11.8584770  46.4869910   6.9333290
  12.2108590  45.8898040   6.2734660  10.9747100  46.1614140   7.1041540
   7.9448050  47.2467600   4.3403700   8.6319180  47.7936810   4.7211290
   7.1580470  47.7908330   4.3753310   7.2475260  44.2513630   3.9529060
   7.7038040  45.0618880   4.1789250   6.8963470  43.9336770   4.7847550
   9.5507870  49.7619970  11.1821360  10.1950090  49.9679350  11.8594780
   9.9137310  49.0008370  10.7292210   3.1487040  34.5951280   4.4251580
   3.0201670  34.5869180   5.3736500   2.3249060  34.9334370   4.0742590
  10.8239950  47.7652320   9.8998810  11.4662180  47.0645480  10.0130980
  11.3489300  48.5450760   9.7195700  12.5977570  48.5647220  13.1034870
  12.9333810  49.1513910  13.7812790  11.6777910  48.4339930  13.3332660
   8.4266150  48.6138550  16.2722930   8.1063020  47.8947790  16.8168620
   7.7524510  49.2893620  16.3458990  11.6419750  38.8464710  11.6359730
  12.0100570  38.0259920  11.9639300  10.7817950  38.9066600  12.0515380
  15.0081780  37.8021650   2.4447290  14.3794940  37.9067320   1.7305520
  14.5133700  38.0218430   3.2341170   6.9765810  40.0807600   3.8605170
   6.2681960  40.5493940   4.3018780   7.2610290  39.4229610   4.4950360
   8.6021740  41.5004300  11.8597700   9.1006990  41.9750120  12.5249550
   8.7444690  40.5767820  12.0667730  11.0081240  36.8058260   5.3000960
  10.8849020  36.8244390   4.3510470  11.9565800  36.8537200   5.4199360
   8.0958030  52.0413560   4.5728940   8.3499530  52.0034950   3.6508310
   7.1470510  51.9146890   4.5657190  15.8088600  37.7172260  12.7026090
  15.3062200  38.4577660  13.0419900  16.6245260  38.1056260  12.3862880
  14.1010610  42.9605440   6.1487450  13.1600750  42.9755670   6.3235140
  14.4154680  42.1741400   6.5947750  16.1036190  50.1314290   7.8241710
  16.2283610  50.9545460   8.2965520  16.9701750  49.9205020   7.4765860
   3.5753720  52.2245500   7.4958840   4.3116200  51.6760960   7.7667410
   3.9594640  53.0901510   7.3564830   2.5812000  51.4091570  16.6844420
   3.3824730  51.7303620  17.0979820   2.0663820  51.0487150  17.4064330
  11.4176630  47.5171440  16.6319830  10.8114790  47.5403040  15.8915580
  11.1130740  46.7854480  17.1687080  12.8477000  51.2451730  15.2429240
  13.7998750  51.1609750  15.1929480  12.7005220  51.9093440  15.9163030
   7.3547750  45.3036020  15.1615990   6.5893420  45.8721020  15.0770660
   7.5363710  45.0112230  14.2684220  14.4971100  47.0341350  15.7191010
  15.2380570  47.3717110  15.2158470  13.7343780  47.2033410  15.1660780
   2.3332890  42.0394620  16.5230540   2.3738230  41.7408490  17.4315770
   3.1878390  42.4402230  16.3638060   4.2738700  40.6186720  14.4905030
   3.7435160  40.1277670  13.8628370   4.9426770  41.0470920  13.9562960
  13.1716760  45.0856180  14.2546220  13.5857780  45.2401260  15.1036640
  12.2367760  45.2111400  14.4172000  13.6438930  42.4252340  16.2585370
  14.2259700  41.6704660  16.1705850  13.8200700  42.9559780  15.4816850
   4.7611000  37.5849090  14.5702320   4.6667870  36.9669840  13.8453190
   4.1808390  38.3115380  14.3432230   7.5272440  36.1422330  11.6029710
   7.0789740  36.1646590  10.7575260   6.8937640  35.7441350  12.2000010
   7.9331990  45.0376660  12.2242150   8.3520100  45.8809390  12.0518390
   7.0140620  45.1748700  11.9948930  10.2695890  42.7692840  13.6079990
  10.3892100  42.1733980  14.3474830  11.1289890  42.8062530  13.1881290
  12.6083790  43.3230030  12.1842500  12.0819010  43.8472650  11.5807640
  12.9515130  43.9557420  12.8152230   5.7839410  51.3429670  13.3399880
   5.2460500  52.0675730  13.0208580   6.0373370  50.8660010  12.5497220
   7.0364660  39.3114190  14.8655810   7.6264350  39.0030040  15.5533630
   6.2184900  38.8393940  15.0215710  11.8558090  38.9280000  15.0988830
  11.1673610  38.2661540  15.0338820  12.5764110  38.4818270  15.5437290
   8.6401620  52.5780880  13.5986530   8.5660320  53.4816020  13.9058900
   7.7380460  52.2592780  13.5708600   4.6390830  48.2364480   4.5622120
   4.3386370  48.1129450   5.4626030   4.5328320  47.3773070   4.1537850
  16.1681300  50.2743060  13.9279090  15.5683290  50.3335620  13.1843010
  16.2975200  49.3348040  14.0575940  16.8639210  44.7608360   1.7683000
  17.6258120  45.3305010   1.8742690  16.8793580  44.1935560   2.5391310
  17.8699180  45.6158460   6.6124930  18.2408010  44.8325780   6.2060900
  18.5101110  46.3047560   6.4342230  14.8532940  46.9995040  12.0255250
  14.0392780  47.4292200  12.2881040  15.2607140  47.6113450  11.4124300
  16.8123720  42.9911720   3.9184950  16.4367320  42.2239650   3.4866240
  16.0826840  43.3734420   4.4059880  16.2023340  42.1383240  13.5524470
  15.9709430  41.9095990  12.6522420  16.4627890  43.0582790  13.5069360
  14.6411410  37.3639670  16.3304170  15.5181590  37.3723070  16.7138170
  14.6532250  36.6270510  15.7196520  16.0874680  41.2169210   7.2192190
  16.6112160  40.7231860   6.5882360  16.6734100  41.3519570   7.9639760
  16.2664400  41.3009080  10.7411740  15.3167110  41.2672620  10.8556730
  16.4477410  42.2109190  10.5061510  15.5774650  40.4742560   3.1584600
  16.0733770  40.2413430   3.9433480  15.3790720  39.6354400   2.7422240
  17.0061810  39.1103510   5.6922280  16.8961090  38.9559550   6.6304550
  17.7669400  38.5824450   5.4497690  15.3527530  35.0497640  12.1505280
  15.9899750  35.6631780  12.5164470  15.5002420  35.0858300  11.2054510
  14.9108990  51.7513640   5.5523520  15.5068060  51.4298210   4.8757940
  15.1687140  51.2785460   6.3436790   2.8171560  48.1831550  15.7014150
   2.7741190  47.8124460  16.5828610   2.9482570  49.1209120  15.8415970
   6.5177590  49.7391140  11.3023870   6.2768950  50.0065700  10.4154390
   7.4580230  49.9096870  11.3574730   8.7232010  36.2023830  15.0580380
   8.6620900  36.7945660  15.8075790   9.6632390  36.0949790  14.9130640
  11.3606570  35.8593890  14.6972670  11.9746980  36.1773180  14.0353750
  11.9056130  35.3742480  15.3168530  17.7781750  51.7585520  12.1034510
  17.2840030  52.1554390  11.3861640  17.1695040  51.1334730  12.4971790
   1.8827830  34.5388150  14.8111730   2.4310820  34.3576200  14.0477840
   1.9483140  33.7482260  15.3468040   2.6559590  51.1293800  12.8211930
   2.0619910  50.9978500  13.5601970   2.6483430  50.2931940  12.3554030
  12.1014610  34.4226030  11.0241960  11.2274450  34.7561140  10.8214890
  11.9925360  33.9499210  11.8493830  13.0086590  36.6296900  12.4083680
  12.6799950  35.8148660  12.0285410  13.9568890  36.5866710  12.2849370
  15.4621200  52.4008940   9.3821250  15.0024170  53.1524750   9.0079270
  14.8333660  51.6815410   9.3236050   5.8916920  50.7097180   8.5569380
   6.4081940  50.0984540   8.0317640   6.5414300  51.2125960   9.0480390
   8.6312420  51.6005670   9.3838360   8.9190230  51.3459970   8.5071370
   9.1435640  51.0483030   9.9743930   9.8489430  35.3395870   9.9634870
   9.0661220  35.8141370  10.2431630   9.5552360  34.4350700   9.8548050
  14.4010500  36.0418970   8.0083960  14.8418590  35.9864070   7.1605560
  14.1318090  36.9576980   8.0794140  16.2649070  35.6734210   6.0192780
  16.2037470  34.7295430   5.8723800  17.0441100  35.7814300   6.5646240
   7.7343650  37.7582620   5.4750900   6.9218160  37.3839510   5.1346780
   8.2385290  37.0027700   5.7772090  12.2368630  34.4225070   6.7133970
  12.8398000  34.9945280   7.1882490  11.4961620  34.9864510   6.4907870
  15.3803230  34.8246630   1.9874250  15.5753860  35.7230080   2.2541680
  14.5933100  34.5933710   2.4807200   2.1764520  50.5059800   2.4266870
   1.6512140  50.8867830   1.7228830   2.1009100  51.1310570   3.1476580
   5.7592830  35.9082540   4.0795950   5.1295570  35.2069850   4.2466080
   5.2197970  36.6686670   3.8629110   8.6984780  52.5221770  16.7506560
   9.6252090  52.2866040  16.7942520   8.6835210  53.3493770  16.2692590
  16.9329840  52.0647340   3.7480810  17.1082030  51.3785080   3.1041730
  16.2351410  52.5894390   3.3557480   5.8848390  35.1866520  16.5148440
   5.6032660  35.6900120  15.7509260   6.2668090  34.3888270  16.1490570
  12.4863850  34.6020100  17.0928910  12.3729300  34.9214710  17.9880430
  13.3033590  35.0032610  16.7966190  15.2662340  51.7491630  16.5747600
  16.0587660  51.2540860  16.3673560  15.5595490  52.4281770  17.1823210
  11.3922000  23.8469080  81.3281100  11.3116050  22.9323690  81.0572810
  10.9786420  24.3436150  80.6220810   9.5240040  25.6248100  83.2090370
   8.7482140  25.1448540  83.4988940  10.1752970  24.9453750  83.0346530
   3.5405870  25.9367910  84.0866130   2.7090750  25.6816620  84.4862640
   4.1486850  26.0078680  84.8224050  13.5447470  30.0308290  81.9889500
  13.0829000  29.2595530  82.3176670  14.3573020  30.0574360  82.4941950
   3.5207130  29.9708000  84.2824150   3.8235170  29.0805740  84.1034370
   4.2650720  30.5278220  84.0546400   9.7710780  32.3166300  81.6093490
   9.1522220  32.7723800  81.0387930  10.6262560  32.4717760  81.2083190
   8.9649030  28.3005290  83.2160530   8.8957310  27.3595230  83.0549660
   9.7268890  28.3906700  83.7883100   9.9954200  21.1075670  83.4429460
  10.3719020  20.2347550  83.3303130   9.8973710  21.4434370  82.5519900
   4.1259210  19.4801300  78.9046900   4.2325960  20.3805030  79.2115660
   3.2151570  19.4319270  78.6141550  13.7778320  18.6026110  80.3757800
  14.5987940  18.1122680  80.4183280  13.8112400  19.1923770  81.1289640
   5.9666940  22.4487670  83.2372080   6.4745160  22.9468640  83.8777100
   6.4980180  21.6722870  83.0611440  18.0677870  20.6192860  86.9401430
  17.3630040  21.0074570  86.4216540  18.3335790  21.3143150  87.5422360
   4.2503040  17.0886230  87.5035500   4.2521480  17.6058620  86.6981400
   3.4207350  16.6116410  87.4805430  10.6374130  27.2005540  79.0025400
  10.0191400  27.6654990  78.4388120  11.1497380  27.8933020  79.4194910
   5.5005890  26.7281410  85.6809000   5.1675270  27.3550330  86.3230070
   5.6772570  27.2543290  84.9010670  14.0139800  20.5426490  83.1485340
  13.3095370  20.8311380  83.7288450  14.3751960  21.3526600  82.7884900
   3.9318370  18.7996190  85.5105950   4.2735180  19.6438240  85.2159820
   2.9934180  18.9479930  85.6271290   4.7124990  28.6962210  87.4958180
   5.3298990  29.3713290  87.2142630   3.8518110  29.1050190  87.4045680
  15.6302580  30.1601620  85.4112820  14.9466100  30.8300730  85.4029490
  16.1696870  30.3582270  84.6457680  17.0826720  19.9881280  83.5394550
  16.1351630  20.0220260  83.6709980  17.4076710  20.8020230  83.9243910
   7.6146260  16.2878460  81.8350540   7.9221240  15.7325350  81.1186040
   6.6846960  16.4222920  81.6523530  13.1661320  32.0045750  84.1258000
  13.1788480  31.6008040  83.2580260  12.6136540  32.7793040  84.0219430
  14.4606740  28.7261970  79.2148170  14.3503070  27.7836300  79.3397590
  14.4574990  29.0877610  80.1010930  12.5646760  26.9075590  85.4540610
  12.9815550  26.6935700  84.6194070  13.2886580  27.1648380  86.0249230
  10.0027020  24.3527290  78.5710660   9.0756300  24.2864670  78.7999130
  10.1551840  25.2907420  78.4565900   9.9896100  20.6244290  75.5677820
   9.0499770  20.7858250  75.6530280  10.3079360  21.3429970  75.0213810
  16.5108860  25.3062810  85.5456850  15.6827490  25.3755900  85.0706980
  17.1059340  25.8917120  85.0772680  14.0324310  25.9147590  79.0745910
  13.4136730  25.5767140  78.4272210  14.0148760  25.2707350  79.7825100
  13.4750870  22.0932130  86.4911720  13.0622050  22.9185840  86.7451710
  12.7426820  21.5077170  86.2988080   5.6083660  24.8792030  81.3530390
   5.2040660  24.1669280  80.8576290   5.6946780  24.5345270  82.2418430
   6.0765360  28.5659590  83.5169600   5.7793650  27.9605060  82.8377380
   7.0265180  28.6036900  83.4058960   4.3212280  21.6535240  85.1329430
   4.8726870  21.7630580  84.3582680   4.8355790  22.0272840  85.8484660
  14.1650970  32.1391460  87.1792700  13.6881530  32.9463650  86.9865310
  13.4812760  31.4869790  87.3318910  12.2089010  25.1534400  76.0818660
  12.6482290  24.3156830  75.9356480  12.9217430  25.7863800  76.1682800
   3.9955010  25.1754600  88.7434770   3.8562780  26.0477400  89.1122170
   3.1136370  24.8327410  88.5982710  10.3184390  30.0930470  80.0499900
  10.7580300  30.8354800  79.6355290  10.2571280  30.3357040  80.9738860
  15.7906150  16.4077210  74.3959700  15.4778810  16.5004040  75.2958770
  16.5518620  16.9858240  74.3457130   2.3088290  23.7737010  78.8537040
   2.1885890  24.4999100  78.2418310   1.9989180  23.0039920  78.3764950
  11.0100170  32.7944250  87.9778910  11.5244840  32.7052260  88.7801340
  10.1669250  33.1403950  88.2706820  12.9854570  33.0799590  77.4062910
  12.8255710  32.7902530  78.3044740  12.8201280  32.3039720  76.8708140
   5.4642950  32.8598120  79.1834530   5.2885430  31.9433660  78.9702330
   4.6098690  33.2185410  79.4232330  12.6880700  30.5887150  75.9660910
  11.9945860  30.5864440  75.3063190  13.4303560  30.1646470  75.5355080
  12.2530630  32.2149860  80.0409400  12.7087580  31.4339240  80.3548020
  12.5923150  32.9256680  80.5850580   4.7751950  17.1172080  82.2360710
   4.3320100  17.8981620  81.9045230   5.3336940  17.4401970  82.9431650
   9.0621760  19.9840600  87.8396030   8.6001130  20.1923620  88.6515970
   8.6599870  19.1699950  87.5366700   7.8910770  16.7382780  77.1166540
   7.2664950  16.7342650  77.8419850   7.8040890  15.8713740  76.7202510
   6.8127850  17.6619410  84.0950310   7.1100180  18.5682240  84.0142330
   7.3613410  17.1738190  83.4809880   4.5666170  22.2405650  79.9641960
   4.3407090  22.0242820  80.8688580   3.7858700  22.6734110  79.6187930
  11.7963930  22.2469020  78.5632610  11.1972820  22.9704820  78.3796230
  12.3443540  22.1845800  77.7809060  10.4028800  20.8832560  80.5935890
  10.7958370  21.2004760  79.7804580  10.7645650  20.0044440  80.7080410
  10.9883940  23.4738310  84.6886670  10.2565060  23.9825120  85.0376770
  10.5908280  22.6568290  84.3875450   7.4261330  20.1492510  83.0939160
   7.4297390  19.7082460  82.2443700   8.3212450  20.4709840  83.2010980
   3.2763710  20.0319000  82.0533370   2.9363760  20.5094230  82.8100420
   2.5141030  19.5784120  81.6934470   7.4881480  21.1504590  76.0845920
   7.6094300  21.1091070  77.0331740   7.1029990  22.0128740  75.9292650
  11.4509850  18.9271990  84.1009610  11.4682590  19.3780640  84.9451460
  11.2025430  18.0277630  84.3143050   6.5002980  23.4605730  75.4829220
   5.9319880  23.0123980  74.8565130   7.2091980  23.8198510  74.9494370
   7.7269300  24.2094290  84.8404570   8.0939430  23.7352860  85.5865910
   7.5374360  25.0835860  85.1812910   5.5168670  23.2502930  87.1588780
   5.2125740  24.1294910  87.3839140   6.4715130  23.3102720  87.1946220
   4.0450460  27.4563920  77.7555630   3.2712720  26.9161540  77.5954350
   4.7745090  26.9370530  77.4173390  14.8038440  26.4529280  83.5482020
  15.5237560  26.9484570  83.1578130  14.6020260  25.7747170  82.9035890
  10.2648380  17.8467240  77.6911410   9.4512990  17.3480410  77.6156720
  10.0710330  18.6865490  77.2747760  12.9796770  22.2186890  75.9873570
  13.8676390  22.5304120  75.8124910  12.9501860  21.3459140  75.5954150
   4.0887860  27.1244300  81.3934440   4.6066530  26.3212560  81.3391330
   3.6371880  27.0623440  82.2351270   8.9757360  28.3910580  76.6661740
   9.3173060  29.1352810  76.1705060   8.1470070  28.7041700  77.0286570
  15.2511040  23.5298730  75.4553430  15.1674760  23.9612950  74.6049870
  15.9705230  23.9897080  75.8880250  16.3285180  25.9866250  88.5323400
  15.6033370  26.5795030  88.3352790  16.8560640  25.9789790  87.7336770
  16.2798290  30.3840990  78.1835560  15.6374450  29.7296610  78.4579280
  15.8928950  30.7896080  77.4076230  11.8584770  27.7126420  82.0307250
  12.2108590  27.1154550  81.3708620  10.9747100  27.3870650  82.2015500
   7.9448050  28.4724110  79.4377660   8.6319180  29.0193320  79.8185250
   7.1580470  29.0164840  79.4727270   7.2475260  25.4770140  79.0503020
   7.7038040  26.2875390  79.2763210   6.8963470  25.1593280  79.8821510
   9.5507870  30.9876480  86.2795320  10.1950090  31.1935860  86.9568740
   9.9137310  30.2264880  85.8266170   3.1487040  15.8207790  79.5225540
   3.0201670  15.8125690  80.4710460   2.3249060  16.1590880  79.1716550
  10.8239950  28.9908830  84.9972770  11.4662180  28.2901990  85.1104940
  11.3489300  29.7707270  84.8169660  14.6695670  29.2757450  74.7211910
  14.4433250  28.5587890  75.3136550  14.2791870  29.0269890  73.8833660
  12.5977570  29.7903730  88.2008830  12.9333810  30.3770420  88.8786750
  11.6777910  29.6596440  88.4306620  14.2511920  27.1929390  76.3826070
  13.9633620  27.6542080  77.1703950  15.0464090  26.7327160  76.6510290
   6.4680320  30.6855510  76.3130040   6.4590420  31.4185200  75.6974550
   5.5478680  30.4387090  76.4057000  11.6419750  20.0721220  86.7333690
  12.0100570  19.2516430  87.0613260  10.7817950  20.1323110  87.1489340
  15.0081780  19.0278160  77.5421250  14.3794940  19.1323830  76.8279480
  14.5133700  19.2474940  78.3315130   9.4539920  30.7483750  74.9755230
   9.5551900  30.5447740  74.0457210   8.5541660  30.4942030  75.1803010
   6.9765810  21.3064110  78.9579130   6.2681960  21.7750450  79.3992740
   7.2610290  20.6486120  79.5924320   8.6021740  22.7260810  86.9571660
   9.1006990  23.2006630  87.6223510   8.7444690  21.8024330  87.1641690
  11.0081240  18.0314770  80.3974920  10.8849020  18.0500900  79.4484430
  11.9565800  18.0793710  80.5173320   8.0958030  33.2670070  79.6702900
   8.3499530  33.2291460  78.7482270   7.1470510  33.1403400  79.6631150
   5.1800830  19.6149190  76.3329840   6.0291360  20.0519340  76.2670030
   4.8132100  19.9269450  77.1601900  15.8088600  18.9428770  87.8000050
  15.3062200  19.6834170  88.1393860  16.6245260  19.3312770  87.4836840
  14.1010610  24.1861950  81.2461410  13.1600750  24.2012180  81.4209100
  14.4154680  23.3997910  81.6921710   4.0792250  25.8681550  74.8065370
   4.8455520  25.7562910  75.3690800   4.1566940  25.1719520  74.1542140
   2.7739010  23.3006620  75.4898260   2.8542600  22.3534130  75.6015660
   3.6658760  23.6313500  75.5958920  16.1036190  31.3570800  82.9215670
  16.2283610  32.1801970  83.3939480  16.9701750  31.1461530  82.5739820
   3.5753720  33.4502010  82.5932800   4.3116200  32.9017470  82.8641370
   3.9594640  34.3158020  82.4538790   6.6856030  32.6232320  74.4158370
   7.4784640  32.9121150  73.9640160   6.1660380  32.1924490  73.7370850
  15.7386200  31.8502450  75.8395110  15.4527710  31.4367590  75.0249290
  15.5405750  32.7790160  75.7195630   7.2033430  27.8435730  74.2800720
   7.0984070  27.2288080  75.0062100   7.0357650  27.3201620  73.4963730
  10.4436160  26.9055760  74.8842710   9.8946260  27.3525060  75.5285450
  11.0655420  26.4005010  75.4080380   6.1111280  25.8646680  76.7808010
   6.5327700  25.6986550  77.6239400   6.2362120  25.0546910  76.2863150
   8.6238920  24.8884290  74.0285110   9.1444580  24.1733310  73.6626260
   9.2707320  25.5270160  74.3285620   7.5272440  17.3678840  86.7003670
   7.0789740  17.3903100  85.8549220   6.8937640  16.9697860  87.2973970
   7.9331990  26.2633170  87.3216110   8.3520100  27.1065900  87.1492350
   7.0140620  26.4005210  87.0922890  12.6083790  24.5486540  87.2816460
  12.0819010  25.0729160  86.6781600  12.9515130  25.1813930  87.9126190
   5.0070180  21.9379910  73.7266170   4.8059240  21.0747270  74.0879510
   4.8362230  21.8513270  72.7887770   5.7839410  32.5686180  88.4373840
   5.2460500  33.2932240  88.1182540   6.0373370  32.0916520  87.6471180
  12.4858490  16.7488140  76.2553050  12.7660780  15.9056040  76.6112470
  11.7124220  16.9811250  76.7691800   3.8052980  19.0380530  73.7144050
   4.1078880  19.0447960  72.8063200   4.5447570  18.6878390  74.2111710
   8.6401620  33.8037390  88.6960490   8.5660320  34.7072530  89.0032860
   7.7380460  33.4849290  88.6682560   7.0237910  17.9815150  74.7000250
   6.6759910  17.3039140  74.1202700   7.2250680  17.5204660  75.5143640
   9.1886950  32.9695900  76.3186850  10.0837740  33.3080870  76.3405610
   9.2204580  32.2475310  75.6911130   2.8283110  28.3422950  74.5473850
   3.2657980  28.8852620  75.2031430   3.3130840  27.5169900  74.5570190
   4.6390830  29.4620990  79.6596080   4.3386370  29.3385960  80.5599990
   4.5328320  28.6029580  79.2511810  17.4082750  29.2417390  74.3622760
  16.5775710  29.3094040  74.8329990  17.5854580  30.1321510  74.0589620
  16.8639210  25.9864870  76.8656960  17.6258120  26.5561520  76.9716650
  16.8793580  25.4192070  77.6365270  17.8699180  26.8414970  81.7098890
  18.2408010  26.0582290  81.3034860  18.5101110  27.5304070  81.5316190
  14.8532940  28.2251550  87.1229210  14.0392780  28.6548710  87.3855000
  15.2607140  28.8369960  86.5098260  16.9158380  26.2799240  74.0229480
  17.1907220  27.1878120  73.8948700  16.7269120  26.2161770  74.9591470
  13.3133990  19.3044090  75.3183110  13.7318870  19.1175070  74.4779770
  13.0070050  18.4523140  75.6286040  16.8123720  24.2168230  79.0158910
  16.4367320  23.4496160  78.5840200  16.0826840  24.5990930  79.5033840
  16.2023340  23.3639750  88.6498430  15.9709430  23.1352500  87.7496380
  16.4627890  24.2839300  88.6043320  16.0874680  22.4425720  82.3166150
  16.6112160  21.9488370  81.6856320  16.6734100  22.5776080  83.0613720
  16.2664400  22.5265590  85.8385700  15.3167110  22.4929130  85.9530690
  16.4477410  23.4365700  85.6035470   1.7683000  16.8306600  73.9886980
   2.4911130  17.3715540  74.3068200   2.0407520  16.5570020  73.1128520
  15.5774650  21.6999070  78.2558560  16.0733770  21.4669940  79.0407440
  15.3790720  20.8610910  77.8396200  17.0061810  20.3360020  80.7896240
  16.8961090  20.1816060  81.7278510  17.7669400  19.8080960  80.5471650
  15.3527530  16.2754150  87.2479240  15.9899750  16.8888290  87.6138430
  15.5002420  16.3114810  86.3028470  17.8952080  18.1667940  74.0302380
  18.8201390  18.0349120  73.8220670  17.8727870  18.2460760  74.9838830
  17.9690570  18.9378600  76.6559090  17.1742070  18.8723720  77.1852000
  18.1733850  19.8729240  76.6444440  14.9108990  32.9770150  80.6497480
  15.5068060  32.6554720  79.9731900  15.1687140  32.5041970  81.4410750
   6.5177590  30.9647650  86.3997830   6.2768950  31.2322210  85.5128350
   7.4580230  31.1353380  86.4548690  17.7781750  32.9842030  87.2008470
  17.2840030  33.3810900  86.4835600  17.1695040  32.3591240  87.5945750
   2.6559590  32.3550310  87.9185890   2.0619910  32.2235010  88.6575930
   2.6483430  31.5188450  87.4527990  12.1014610  15.6482540  86.1215920
  11.2274450  15.9817650  85.9188850  11.9925360  15.1755720  86.9467790
  13.0086590  17.8553410  87.5057640  12.6799950  17.0405170  87.1259370
  13.9568890  17.8123220  87.3823330  15.4621200  33.6265450  84.4795210
  15.0024170  34.3781260  84.1053230  14.8333660  32.9071920  84.4210010
   5.8916920  31.9353690  83.6543340   6.4081940  31.3241050  83.1291600
   6.5414300  32.4382470  84.1454350   8.6312420  32.8262180  84.4812320
   8.9190230  32.5716480  83.6045330   9.1435640  32.2739540  85.0717890
   9.8489430  16.5652380  85.0608830   9.0661220  17.0397880  85.3405590
   9.5552360  15.6607210  84.9522010  14.4010500  17.2675480  83.1057920
  14.8418590  17.2120580  82.2579520  14.1318090  18.1833490  83.1768100
  16.2649070  16.8990720  81.1166740  16.2037470  15.9551940  80.9697760
  17.0441100  17.0070810  81.6620200   7.7343650  18.9839130  80.5724860
   6.9218160  18.6096020  80.2320740   8.2385290  18.2284210  80.8746050
  12.2368630  15.6481580  81.8107930  12.8398000  16.2201790  82.2856450
  11.4961620  16.2121020  81.5881830  15.3803230  16.0503140  77.0848210
  15.5753860  16.9486590  77.3515640  14.5933100  15.8190220  77.5781160
   2.1764520  31.7316310  77.5240830   1.6512140  32.1124340  76.8202790
   2.1009100  32.3567080  78.2450540   3.5654990  17.3963910  76.1224520
   4.0947750  16.6093710  75.9932470   4.1983310  18.0755100  76.3560050
   5.7592830  17.1339050  79.1769910   5.1295570  16.4326360  79.3440040
   5.2197970  17.8943180  78.9603070  16.9329840  33.2903850  78.8454770
  17.1082030  32.6041590  78.2015690  16.2351410  33.8150900  78.4531440
   4.7757490  33.6798690  76.3990080   5.5076310  33.3957970  75.8513970
   5.0351160  33.4411970  77.2889460   3.9372280  29.7963420  76.4036410
   3.3081160  30.2648520  76.9522240   4.0520110  28.9512640  76.8382600
  11.3922000  23.8469080  62.5537610  11.3116050  22.9323690  62.2829320
  10.9786420  24.3436150  61.8477320   9.5240040  25.6248100  64.4346880
   8.7482140  25.1448540  64.7245450  10.1752970  24.9453750  64.2603040
   3.5405870  25.9367910  65.3122640   2.7090750  25.6816620  65.7119150
   4.1486850  26.0078680  66.0480560  13.5447470  30.0308290  63.2146010
  13.0829000  29.2595530  63.5433180  14.3573020  30.0574360  63.7198460
   3.5207130  29.9708000  65.5080660   3.8235170  29.0805740  65.3290880
   4.2650720  30.5278220  65.2802910   9.7710780  32.3166300  62.8350000
   9.1522220  32.7723800  62.2644440  10.6262560  32.4717760  62.4339700
   8.9649030  28.3005290  64.4417040   8.8957310  27.3595230  64.2806170
   9.7268890  28.3906700  65.0139610   9.9954200  21.1075670  64.6685970
  10.3719020  20.2347550  64.5559640   9.8973710  21.4434370  63.7776410
   4.1259210  19.4801300  60.1303410   4.2325960  20.3805030  60.4372170
   3.2151570  19.4319270  59.8398060  13.7778320  18.6026110  61.6014310
  14.5987940  18.1122680  61.6439790  13.8112400  19.1923770  62.3546150
   5.9666940  22.4487670  64.4628590   6.4745160  22.9468640  65.1033610
   6.4980180  21.6722870  64.2867950  18.0677870  20.6192860  68.1657940
  17.3630040  21.0074570  67.6473050  18.3335790  21.3143150  68.7678870
   4.2503040  17.0886230  68.7292010   4.2521480  17.6058620  67.9237910
   3.4207350  16.6116410  68.7061940  10.6374130  27.2005540  60.2281910
  10.0191400  27.6654990  59.6644630  11.1497380  27.8933020  60.6451420
   5.5005890  26.7281410  66.9065510   5.1675270  27.3550330  67.5486580
   5.6772570  27.2543290  66.1267180  14.0139800  20.5426490  64.3741850
  13.3095370  20.8311380  64.9544960  14.3751960  21.3526600  64.0141410
   3.9318370  18.7996190  66.7362460   4.2735180  19.6438240  66.4416330
   2.9934180  18.9479930  66.8527800   4.7124990  28.6962210  68.7214690
   5.3298990  29.3713290  68.4399140   3.8518110  29.1050190  68.6302190
  15.6302580  30.1601620  66.6369330  14.9466100  30.8300730  66.6286000
  16.1696870  30.3582270  65.8714190  17.0826720  19.9881280  64.7651060
  16.1351630  20.0220260  64.8966490  17.4076710  20.8020230  65.1500420
   7.6146260  16.2878460  63.0607050   7.9221240  15.7325350  62.3442550
   6.6846960  16.4222920  62.8780040  13.1661320  32.0045750  65.3514510
  13.1788480  31.6008040  64.4836770  12.6136540  32.7793040  65.2475940
  14.4606740  28.7261970  60.4404680  14.3503070  27.7836300  60.5654100
  14.4574990  29.0877610  61.3267440  12.5646760  26.9075590  66.6797120
  12.9815550  26.6935700  65.8450580  13.2886580  27.1648380  67.2505740
  10.0027020  24.3527290  59.7967170   9.0756300  24.2864670  60.0255640
  10.1551840  25.2907420  59.6822410   9.9896100  20.6244290  56.7934330
   9.0499770  20.7858250  56.8786790  10.3079360  21.3429970  56.2470320
  16.5108860  25.3062810  66.7713360  15.6827490  25.3755900  66.2963490
  17.1059340  25.8917120  66.3029190  14.0324310  25.9147590  60.3002420
  13.4136730  25.5767140  59.6528720  14.0148760  25.2707350  61.0081610
  13.4750870  22.0932130  67.7168230  13.0622050  22.9185840  67.9708220
  12.7426820  21.5077170  67.5244590   5.6083660  24.8792030  62.5786900
   5.2040660  24.1669280  62.0832800   5.6946780  24.5345270  63.4674940
   6.0765360  28.5659590  64.7426110   5.7793650  27.9605060  64.0633890
   7.0265180  28.6036900  64.6315470   4.3212280  21.6535240  66.3585940
   4.8726870  21.7630580  65.5839190   4.8355790  22.0272840  67.0741170
  14.1650970  32.1391460  68.4049210  13.6881530  32.9463650  68.2121820
  13.4812760  31.4869790  68.5575420   5.1683790  28.3041280  71.3933910
   4.2712320  28.5281250  71.6407310   5.1936660  28.4276220  70.4445310
  12.2089010  25.1534400  57.3075170  12.6482290  24.3156830  57.1612990
  12.9217430  25.7863800  57.3939310   3.9955010  25.1754600  69.9691280
   3.8562780  26.0477400  70.3378680   3.1136370  24.8327410  69.8239220
  10.3184390  30.0930470  61.2756410  10.7580300  30.8354800  60.8611800
  10.2571280  30.3357040  62.1995370   5.7935360  31.1176300  72.1776430
   5.7650790  31.5219250  71.3104860   5.6300330  30.1886660  72.0148030
  15.7906150  16.4077210  55.6216210  15.4778810  16.5004040  56.5215280
  16.5518620  16.9858240  55.5713640   2.3088290  23.7737010  60.0793550
   2.1885890  24.4999100  59.4674820   1.9989180  23.0039920  59.6021460
  17.7450180  31.9003400  73.4740600  18.2209900  32.3786290  74.1529680
  18.3657340  31.8320890  72.7486100  17.1483430  29.0916250  70.6340610
  17.2746490  28.8528130  69.7157790  17.1904810  28.2600790  71.1062690
  11.0100170  32.7944250  69.2035420  11.5244840  32.7052260  70.0057850
  10.1669250  33.1403950  69.4963330  12.9854570  33.0799590  58.6319420
  12.8255710  32.7902530  59.5301250  12.8201280  32.3039720  58.0964650
   5.4642950  32.8598120  60.4091040   5.2885430  31.9433660  60.1958840
   4.6098690  33.2185410  60.6488840  12.6880700  30.5887150  57.1917420
  11.9945860  30.5864440  56.5319700  13.4303560  30.1646470  56.7611590
  12.2530630  32.2149860  61.2665910  12.7087580  31.4339240  61.5804530
  12.5923150  32.9256680  61.8107090  17.0007440  21.1448710  71.5990350
  16.3851710  21.6528380  71.0705810  16.6803860  20.2447040  71.5416290
   4.7751950  17.1172080  63.4617220   4.3320100  17.8981620  63.1301740
   5.3336940  17.4401970  64.1688160   9.0621760  19.9840600  69.0652540
   8.6001130  20.1923620  69.8772480   8.6599870  19.1699950  68.7623210
  14.0626270  21.2049550  70.1949200  13.2119860  20.9055300  70.5158270
  13.9028060  21.4491560  69.2833020  11.1575980  22.7051300  72.2947990
  11.4829390  21.8715050  71.9550220  11.9456310  23.2279820  72.4426320
   7.8910770  16.7382780  58.3423050   7.2664950  16.7342650  59.0676360
   7.8040890  15.8713740  57.9459020   6.8127850  17.6619410  65.3206820
   7.1100180  18.5682240  65.2398840   7.3613410  17.1738190  64.7066390
   4.5666170  22.2405650  61.1898470   4.3407090  22.0242820  62.0945090
   3.7858700  22.6734110  60.8444440  11.7963930  22.2469020  59.7889120
  11.1972820  22.9704820  59.6052740  12.3443540  22.1845800  59.0065570
   7.0065380  23.1391230  71.8558740   6.9108980  22.1985960  71.7059140
   7.8497360  23.3606300  71.4606810  10.4028800  20.8832560  61.8192400
  10.7958370  21.2004760  61.0061090  10.7645650  20.0044440  61.9336920
   8.7120970  19.6339870  73.0789260   8.0219290  19.4412070  73.7135350
   9.4553270  19.9174510  73.6113560  10.9883940  23.4738310  65.9143180
  10.2565060  23.9825120  66.2633280  10.5908280  22.6568290  65.6131960
   7.4261330  20.1492510  64.3195670   7.4297390  19.7082460  63.4700210
   8.3212450  20.4709840  64.4267490   3.2763710  20.0319000  63.2789880
   2.9363760  20.5094230  64.0356930   2.5141030  19.5784120  62.9190980
   7.4881480  21.1504590  57.3102430   7.6094300  21.1091070  58.2588250
   7.1029990  22.0128740  57.1549160  11.4509850  18.9271990  65.3266120
  11.4682590  19.3780640  66.1707970  11.2025430  18.0277630  65.5399560
   6.5002980  23.4605730  56.7085730   5.9319880  23.0123980  56.0821640
   7.2091980  23.8198510  56.1750880  14.8780600  16.3404170  71.1652500
  15.2026370  15.6093830  71.6910480  14.9137110  16.0217810  70.2633490
   7.7269300  24.2094290  66.0661080   8.0939430  23.7352860  66.8122420
   7.5374360  25.0835860  66.4069420   5.5168670  23.2502930  68.3845290
   5.2125740  24.1294910  68.6095650   6.4715130  23.3102720  68.4202730
   4.0450460  27.4563920  58.9812140   3.2712720  26.9161540  58.8210860
   4.7745090  26.9370530  58.6429900  14.8038440  26.4529280  64.7738530
  15.5237560  26.9484570  64.3834640  14.6020260  25.7747170  64.1292400
  10.2648380  17.8467240  58.9167920   9.4512990  17.3480410  58.8413230
  10.0710330  18.6865490  58.5004270  10.1857240  26.5238340  70.6607530
  10.1194550  25.6034010  70.4065120   9.5562380  26.6213780  71.3752170
  12.9796770  22.2186890  57.2130080  13.8676390  22.5304120  57.0381420
  12.9501860  21.3459140  56.8210660   4.0887860  27.1244300  62.6190950
   4.6066530  26.3212560  62.5647840   3.6371880  27.0623440  63.4607780
   8.9757360  28.3910580  57.8918250   9.3173060  29.1352810  57.3961570
   8.1470070  28.7041700  58.2543080   4.7745520  24.5489910  72.4156200
   4.4745660  24.6947090  71.5184020   5.5456760  23.9895200  72.3229590
  10.1173970  29.3458910  70.4111330  10.1318510  28.4139870  70.1930240
   9.4099070  29.4318670  71.0501100  15.2511040  23.5298730  56.6809940
  15.1674760  23.9612950  55.8306380  15.9705230  23.9897080  57.1136760
  16.3285180  25.9866250  69.7579910  15.6033370  26.5795030  69.5609300
  16.8560640  25.9789790  68.9593280  16.2798290  30.3840990  59.4092070
  15.6374450  29.7296610  59.6835790  15.8928950  30.7896080  58.6332740
  11.8584770  27.7126420  63.2563760  12.2108590  27.1154550  62.5965130
  10.9747100  27.3870650  63.4272010   7.9448050  28.4724110  60.6634170
   8.6319180  29.0193320  61.0441760   7.1580470  29.0164840  60.6983780
   7.2475260  25.4770140  60.2759530   7.7038040  26.2875390  60.5019720
   6.8963470  25.1593280  61.1078020   9.5507870  30.9876480  67.5051830
  10.1950090  31.1935860  68.1825250   9.9137310  30.2264880  67.0522680
   3.1487040  15.8207790  60.7482050   3.0201670  15.8125690  61.6966970
   2.3249060  16.1590880  60.3973060  10.8239950  28.9908830  66.2229280
  11.4662180  28.2901990  66.3361450  11.3489300  29.7707270  66.0426170
  14.6695670  29.2757450  55.9468420  14.4433250  28.5587890  56.5393060
  14.2791870  29.0269890  55.1090170  12.5977570  29.7903730  69.4265340
  12.9333810  30.3770420  70.1043260  11.6777910  29.6596440  69.6563130
  14.2511920  27.1929390  57.6082580  13.9633620  27.6542080  58.3960460
  15.0464090  26.7327160  57.8766800   8.4266150  29.8395060  72.5953400
   8.1063020  29.1204300  73.1399090   7.7524510  30.5150130  72.6689460
   6.4680320  30.6855510  57.5386550   6.4590420  31.4185200  56.9231060
   5.5478680  30.4387090  57.6313510  11.6419750  20.0721220  67.9590200
  12.0100570  19.2516430  68.2869770  10.7817950  20.1323110  68.3745850
  15.0081780  19.0278160  58.7677760  14.3794940  19.1323830  58.0535990
  14.5133700  19.2474940  59.5571640   9.4539920  30.7483750  56.2011740
   9.5551900  30.5447740  55.2713720   8.5541660  30.4942030  56.4059520
   6.9765810  21.3064110  60.1835640   6.2681960  21.7750450  60.6249250
   7.2610290  20.6486120  60.8180830   8.6021740  22.7260810  68.1828170
   9.1006990  23.2006630  68.8480020   8.7444690  21.8024330  68.3898200
  11.0081240  18.0314770  61.6231430  10.8849020  18.0500900  60.6740940
  11.9565800  18.0793710  61.7429830   8.0958030  33.2670070  60.8959410
   8.3499530  33.2291460  59.9738780   7.1470510  33.1403400  60.8887660
   5.1800830  19.6149190  57.5586350   6.0291360  20.0519340  57.4926540
   4.8132100  19.9269450  58.3858410  15.8088600  18.9428770  69.0256560
  15.3062200  19.6834170  69.3650370  16.6245260  19.3312770  68.7093350
  14.1010610  24.1861950  62.4717920  13.1600750  24.2012180  62.6465610
  14.4154680  23.3997910  62.9178220   4.0792250  25.8681550  56.0321880
   4.8455520  25.7562910  56.5947310   4.1566940  25.1719520  55.3798650
   2.7739010  23.3006620  56.7154770   2.8542600  22.3534130  56.8272170
   3.6658760  23.6313500  56.8215430  16.1036190  31.3570800  64.1472180
  16.2283610  32.1801970  64.6195990  16.9701750  31.1461530  63.7996330
   3.5753720  33.4502010  63.8189310   4.3116200  32.9017470  64.0897880
   3.9594640  34.3158020  63.6795300   2.5812000  32.6348080  73.0074890
   3.3824730  32.9560130  73.4210290   2.0663820  32.2743660  73.7294800
   6.6856030  32.6232320  55.6414880   7.4784640  32.9121150  55.1896670
   6.1660380  32.1924490  54.9627360  11.4176630  28.7427950  72.9550300
  10.8114790  28.7659550  72.2146050  11.1130740  28.0110990  73.4917550
  12.8477000  32.4708240  71.5659710  13.7998750  32.3866260  71.5159950
  12.7005220  33.1349950  72.2393500   7.2033430  27.8435730  55.5057230
   7.0984070  27.2288080  56.2318610   7.0357650  27.3201620  54.7220240
   7.3547750  26.5292530  71.4846460   6.5893420  27.0977530  71.4001130
   7.5363710  26.2368740  70.5914690  10.4436160  26.9055760  56.1099220
   9.8946260  27.3525060  56.7541960  11.0655420  26.4005010  56.6336890
  14.4971100  28.2597860  72.0421480  15.2380570  28.5973620  71.5388940
  13.7343780  28.4289920  71.4891250   2.3332890  23.2651130  72.8461010
   2.3738230  22.9665000  73.7546240   3.1878390  23.6658740  72.6868530
   6.1111280  25.8646680  58.0064520   6.5327700  25.6986550  58.8495910
   6.2362120  25.0546910  57.5119660   4.2738700  21.8443230  70.8135500
   3.7435160  21.3534180  70.1858840   4.9426770  22.2727430  70.2793430
   8.6238920  24.8884290  55.2541620   9.1444580  24.1733310  54.8882770
   9.2707320  25.5270160  55.5542130  13.1716760  26.3112690  70.5776690
  13.5857780  26.4657770  71.4267110  12.2367760  26.4367910  70.7402470
  13.6438930  23.6508850  72.5815840  14.2259700  22.8961170  72.4936320
  13.8200700  24.1816290  71.8047320   4.7611000  18.8105600  70.8932790
   4.6667870  18.1926350  70.1683660   4.1808390  19.5371890  70.6662700
   7.5272440  17.3678840  67.9260180   7.0789740  17.3903100  67.0805730
   6.8937640  16.9697860  68.5230480   7.9331990  26.2633170  68.5472620
   8.3520100  27.1065900  68.3748860   7.0140620  26.4005210  68.3179400
  10.2695890  23.9949350  69.9310460  10.3892100  23.3990490  70.6705300
  11.1289890  24.0319040  69.5111760  12.6083790  24.5486540  68.5072970
  12.0819010  25.0729160  67.9038110  12.9515130  25.1813930  69.1382700
   5.0070180  21.9379910  54.9522680   4.8059240  21.0747270  55.3136020
   4.8362230  21.8513270  54.0144280   5.7839410  32.5686180  69.6630350
   5.2460500  33.2932240  69.3439050   6.0373370  32.0916520  68.8727690
   7.0364660  20.5370700  71.1886280   7.6264350  20.2286550  71.8764100
   6.2184900  20.0650450  71.3446180  11.8558090  20.1536510  71.4219300
  11.1673610  19.4918050  71.3569290  12.5764110  19.7074780  71.8667760
  12.4858490  16.7488140  57.4809560  12.7660780  15.9056040  57.8368980
  11.7124220  16.9811250  57.9948310   3.8052980  19.0380530  54.9400560
   4.1078880  19.0447960  54.0319710   4.5447570  18.6878390  55.4368220
   8.6401620  33.8037390  69.9217000   8.5660320  34.7072530  70.2289370
   7.7380460  33.4849290  69.8939070   7.0237910  17.9815150  55.9256760
   6.6759910  17.3039140  55.3459210   7.2250680  17.5204660  56.7400150
   9.1886950  32.9695900  57.5443360  10.0837740  33.3080870  57.5662120
   9.2204580  32.2475310  56.9167640   2.8283110  28.3422950  55.7730360
   3.2657980  28.8852620  56.4287940   3.3130840  27.5169900  55.7826700
   4.6390830  29.4620990  60.8852590   4.3386370  29.3385960  61.7856500
   4.5328320  28.6029580  60.4768320  16.1681300  31.4999570  70.2509560
  15.5683290  31.5592130  69.5073480  16.2975200  30.5604550  70.3806410
  16.8639210  25.9864870  58.0913470  17.6258120  26.5561520  58.1973160
  16.8793580  25.4192070  58.8621780  17.8699180  26.8414970  62.9355400
  18.2408010  26.0582290  62.5291370  18.5101110  27.5304070  62.7572700
  14.8532940  28.2251550  68.3485720  14.0392780  28.6548710  68.6111510
  15.2607140  28.8369960  67.7354770  13.3133990  19.3044090  56.5439620
  13.7318870  19.1175070  55.7036280  13.0070050  18.4523140  56.8542550
  16.8123720  24.2168230  60.2415420  16.4367320  23.4496160  59.8096710
  16.0826840  24.5990930  60.7290350  16.2023340  23.3639750  69.8754940
  15.9709430  23.1352500  68.9752890  16.4627890  24.2839300  69.8299830
  14.6411410  18.5896180  72.6534640  15.5181590  18.5979580  73.0368640
  14.6532250  17.8527020  72.0426990  16.0874680  22.4425720  63.5422660
  16.6112160  21.9488370  62.9112830  16.6734100  22.5776080  64.2870230
  16.2664400  22.5265590  67.0642210  15.3167110  22.4929130  67.1787200
  16.4477410  23.4365700  66.8291980   1.7683000  16.8306600  55.2143490
   2.4911130  17.3715540  55.5324710   2.0407520  16.5570020  54.3385030
  15.5774650  21.6999070  59.4815070  16.0733770  21.4669940  60.2663950
  15.3790720  20.8610910  59.0652710  17.0061810  20.3360020  62.0152750
  16.8961090  20.1816060  62.9535020  17.7669400  19.8080960  61.7728160
  15.3527530  16.2754150  68.4735750  15.9899750  16.8888290  68.8394940
  15.5002420  16.3114810  67.5284980  17.8952080  18.1667940  55.2558890
  18.8201390  18.0349120  55.0477180  17.8727870  18.2460760  56.2095340
  17.9690570  18.9378600  57.8815600  17.1742070  18.8723720  58.4108510
  18.1733850  19.8729240  57.8700950  14.9108990  32.9770150  61.8753990
  15.5068060  32.6554720  61.1988410  15.1687140  32.5041970  62.6667260
   2.8171560  29.4088060  72.0244620   2.7741190  29.0380970  72.9059080
   2.9482570  30.3465630  72.1646440   6.5177590  30.9647650  67.6254340
   6.2768950  31.2322210  66.7384860   7.4580230  31.1353380  67.6805200
   8.7232010  17.4280340  71.3810850   8.6620900  18.0202170  72.1306260
   9.6632390  17.3206300  71.2361110  11.3606570  17.0850400  71.0203140
  11.9746980  17.4029690  70.3584220  11.9056130  16.5998990  71.6399000
  17.7781750  32.9842030  68.4264980  17.2840030  33.3810900  67.7092110
  17.1695040  32.3591240  68.8202260   1.8827830  15.7644660  71.1342200
   2.4310820  15.5832710  70.3708310   1.9483140  14.9738770  71.6698510
   2.6559590  32.3550310  69.1442400   2.0619910  32.2235010  69.8832440
   2.6483430  31.5188450  68.6784500  12.1014610  15.6482540  67.3472430
  11.2274450  15.9817650  67.1445360  11.9925360  15.1755720  68.1724300
  13.0086590  17.8553410  68.7314150  12.6799950  17.0405170  68.3515880
  13.9568890  17.8123220  68.6079840  15.4621200  33.6265450  65.7051720
  15.0024170  34.3781260  65.3309740  14.8333660  32.9071920  65.6466520
   5.8916920  31.9353690  64.8799850   6.4081940  31.3241050  64.3548110
   6.5414300  32.4382470  65.3710860   8.6312420  32.8262180  65.7068830
   8.9190230  32.5716480  64.8301840   9.1435640  32.2739540  66.2974400
   9.8489430  16.5652380  66.2865340   9.0661220  17.0397880  66.5662100
   9.5552360  15.6607210  66.1778520  14.4010500  17.2675480  64.3314430
  14.8418590  17.2120580  63.4836030  14.1318090  18.1833490  64.4024610
  16.2649070  16.8990720  62.3423250  16.2037470  15.9551940  62.1954270
  17.0441100  17.0070810  62.8876710   7.7343650  18.9839130  61.7981370
   6.9218160  18.6096020  61.4577250   8.2385290  18.2284210  62.1002560
  12.2368630  15.6481580  63.0364440  12.8398000  16.2201790  63.5112960
  11.4961620  16.2121020  62.8138340  15.3803230  16.0503140  58.3104720
  15.5753860  16.9486590  58.5772150  14.5933100  15.8190220  58.8037670
   2.1764520  31.7316310  58.7497340   1.6512140  32.1124340  58.0459300
   2.1009100  32.3567080  59.4707050   3.5654990  17.3963910  57.3481030
   4.0947750  16.6093710  57.2188980   4.1983310  18.0755100  57.5816560
   5.7592830  17.1339050  60.4026420   5.1295570  16.4326360  60.5696550
   5.2197970  17.8943180  60.1859580   8.6984780  33.7478280  73.0737030
   9.6252090  33.5122550  73.1172990   8.6835210  34.5750280  72.5923060
  16.9329840  33.2903850  60.0711280  17.1082030  32.6041590  59.4272200
  16.2351410  33.8150900  59.6787950   5.8848390  16.4123030  72.8378910
   5.6032660  16.9156630  72.0739730   6.2668090  15.6144780  72.4721040
   4.7757490  33.6798690  57.6246590   5.5076310  33.3957970  57.0770480
   5.0351160  33.4411970  58.5145970   3.9372280  29.7963420  57.6292920
   3.3081160  30.2648520  58.1778750   4.0520110  28.9512640  58.0639110
  12.4863850  15.8276610  73.4159380  12.3729300  16.1471220  74.3110900
  13.3033590  16.2289120  73.1196660  15.2662340  32.9748140  72.8978070
  16.0587660  32.4797370  72.6904030  15.5595490  33.6538280  73.5053680
  11.3922000  23.8469080  43.7794120  11.3116050  22.9323690  43.5085830
  10.9786420  24.3436150  43.0733830   9.5240040  25.6248100  45.6603390
   8.7482140  25.1448540  45.9501960  10.1752970  24.9453750  45.4859550
   3.5405870  25.9367910  46.5379150   2.7090750  25.6816620  46.9375660
   4.1486850  26.0078680  47.2737070   3.5207130  29.9708000  46.7337170
   3.8235170  29.0805740  46.5547390   4.2650720  30.5278220  46.5059420
   9.7710780  32.3166300  44.0606510   9.1522220  32.7723800  43.4900950
  10.6262560  32.4717760  43.6596210   8.9649030  28.3005290  45.6673550
   8.8957310  27.3595230  45.5062680   9.7268890  28.3906700  46.2396120
   9.9954200  21.1075670  45.8942480  10.3719020  20.2347550  45.7816150
   9.8973710  21.4434370  45.0032920   4.1259210  19.4801300  41.3559920
   4.2325960  20.3805030  41.6628680   3.2151570  19.4319270  41.0654570
  13.7778320  18.6026110  42.8270820  14.5987940  18.1122680  42.8696300
  13.8112400  19.1923770  43.5802660   5.9666940  22.4487670  45.6885100
   6.4745160  22.9468640  46.3290120   6.4980180  21.6722870  45.5124460
   4.2503040  17.0886230  49.9548520   4.2521480  17.6058620  49.1494420
   3.4207350  16.6116410  49.9318450  10.6374130  27.2005540  41.4538420
  10.0191400  27.6654990  40.8901140  11.1497380  27.8933020  41.8707930
   5.5005890  26.7281410  48.1322020   5.1675270  27.3550330  48.7743090
   5.6772570  27.2543290  47.3523690  14.0139800  20.5426490  45.5998360
  13.3095370  20.8311380  46.1801470  14.3751960  21.3526600  45.2397920
   3.9318370  18.7996190  47.9618970   4.2735180  19.6438240  47.6672840
   2.9934180  18.9479930  48.0784310   4.7124990  28.6962210  49.9471200
   5.3298990  29.3713290  49.6655650   3.8518110  29.1050190  49.8558700
   7.6146260  16.2878460  44.2863560   7.9221240  15.7325350  43.5699060
   6.6846960  16.4222920  44.1036550  14.4606740  28.7261970  41.6661190
  14.3503070  27.7836300  41.7910610  14.4574990  29.0877610  42.5523950
  12.5646760  26.9075590  47.9053630  12.9815550  26.6935700  47.0707090
  13.2886580  27.1648380  48.4762250  10.0027020  24.3527290  41.0223680
   9.0756300  24.2864670  41.2512150  10.1551840  25.2907420  40.9078920
   9.9896100  20.6244290  38.0190840   9.0499770  20.7858250  38.1043300
  10.3079360  21.3429970  37.4726830  13.4750870  22.0932130  48.9424740
  13.0622050  22.9185840  49.1964730  12.7426820  21.5077170  48.7501100
   5.6083660  24.8792030  43.8043410   5.2040660  24.1669280  43.3089310
   5.6946780  24.5345270  44.6931450   6.0765360  28.5659590  45.9682620
   5.7793650  27.9605060  45.2890400   7.0265180  28.6036900  45.8571980
   4.3212280  21.6535240  47.5842450   4.8726870  21.7630580  46.8095700
   4.8355790  22.0272840  48.2997680   5.1683790  28.3041280  52.6190420
   4.2712320  28.5281250  52.8663820   5.1936660  28.4276220  51.6701820
  12.2089010  25.1534400  38.5331680  12.6482290  24.3156830  38.3869500
  12.9217430  25.7863800  38.6195820   3.9955010  25.1754600  51.1947790
   3.8562780  26.0477400  51.5635190   3.1136370  24.8327410  51.0495730
  10.3184390  30.0930470  42.5012920  10.7580300  30.8354800  42.0868310
  10.2571280  30.3357040  43.4251880   5.7935360  31.1176300  53.4032940
   5.7650790  31.5219250  52.5361370   5.6300330  30.1886660  53.2404540
  15.7906150  16.4077210  36.8472720  15.4778810  16.5004040  37.7471790
  16.5518620  16.9858240  36.7970150   2.3088290  23.7737010  41.3050060
   2.1885890  24.4999100  40.6931330   1.9989180  23.0039920  40.8277970
  11.0100170  32.7944250  50.4291930  11.5244840  32.7052260  51.2314360
  10.1669250  33.1403950  50.7219840  12.9854570  33.0799590  39.8575930
  12.8255710  32.7902530  40.7557760  12.8201280  32.3039720  39.3221160
   5.4642950  32.8598120  41.6347550   5.2885430  31.9433660  41.4215350
   4.6098690  33.2185410  41.8745350  12.6880700  30.5887150  38.4173930
  11.9945860  30.5864440  37.7576210  13.4303560  30.1646470  37.9868100
   4.7751950  17.1172080  44.6873730   4.3320100  17.8981620  44.3558250
   5.3336940  17.4401970  45.3944670   9.0621760  19.9840600  50.2909050
   8.6001130  20.1923620  51.1028990   8.6599870  19.1699950  49.9879720
  14.0626270  21.2049550  51.4205710  13.2119860  20.9055300  51.7414780
  13.9028060  21.4491560  50.5089530  11.1575980  22.7051300  53.5204500
  11.4829390  21.8715050  53.1806730  11.9456310  23.2279820  53.6682830
   7.8910770  16.7382780  39.5679560   7.2664950  16.7342650  40.2932870
   7.8040890  15.8713740  39.1715530   6.8127850  17.6619410  46.5463330
   7.1100180  18.5682240  46.4655350   7.3613410  17.1738190  45.9322900
   4.5666170  22.2405650  42.4154980   4.3407090  22.0242820  43.3201600
   3.7858700  22.6734110  42.0700950  11.7963930  22.2469020  41.0145630
  11.1972820  22.9704820  40.8309250  12.3443540  22.1845800  40.2322080
   7.0065380  23.1391230  53.0815250   6.9108980  22.1985960  52.9315650
   7.8497360  23.3606300  52.6863320  10.4028800  20.8832560  43.0448910
  10.7958370  21.2004760  42.2317600  10.7645650  20.0044440  43.1593430
   8.7120970  19.6339870  54.3045770   8.0219290  19.4412070  54.9391860
   9.4553270  19.9174510  54.8370070  10.9883940  23.4738310  47.1399690
  10.2565060  23.9825120  47.4889790  10.5908280  22.6568290  46.8388470
   7.4261330  20.1492510  45.5452180   7.4297390  19.7082460  44.6956720
   8.3212450  20.4709840  45.6524000   3.2763710  20.0319000  44.5046390
   2.9363760  20.5094230  45.2613440   2.5141030  19.5784120  44.1447490
   7.4881480  21.1504590  38.5358940   7.6094300  21.1091070  39.4844760
   7.1029990  22.0128740  38.3805670  11.4509850  18.9271990  46.5522630
  11.4682590  19.3780640  47.3964480  11.2025430  18.0277630  46.7656070
   6.5002980  23.4605730  37.9342240   5.9319880  23.0123980  37.3078150
   7.2091980  23.8198510  37.4007390  14.8780600  16.3404170  52.3909010
  15.2026370  15.6093830  52.9166990  14.9137110  16.0217810  51.4890000
   7.7269300  24.2094290  47.2917590   8.0939430  23.7352860  48.0378930
   7.5374360  25.0835860  47.6325930   5.5168670  23.2502930  49.6101800
   5.2125740  24.1294910  49.8352160   6.4715130  23.3102720  49.6459240
   4.0450460  27.4563920  40.2068650   3.2712720  26.9161540  40.0467370
   4.7745090  26.9370530  39.8686410  10.2648380  17.8467240  40.1424430
   9.4512990  17.3480410  40.0669740  10.0710330  18.6865490  39.7260780
  10.1857240  26.5238340  51.8864040  10.1194550  25.6034010  51.6321630
   9.5562380  26.6213780  52.6008680  12.9796770  22.2186890  38.4386590
  13.8676390  22.5304120  38.2637930  12.9501860  21.3459140  38.0467170
   4.0887860  27.1244300  43.8447460   4.6066530  26.3212560  43.7904350
   3.6371880  27.0623440  44.6864290   8.9757360  28.3910580  39.1174760
   9.3173060  29.1352810  38.6218080   8.1470070  28.7041700  39.4799590
   4.7745520  24.5489910  53.6412710   4.4745660  24.6947090  52.7440530
   5.5456760  23.9895200  53.5486100  10.1173970  29.3458910  51.6367840
  10.1318510  28.4139870  51.4186750   9.4099070  29.4318670  52.2757610
  16.3285180  25.9866250  50.9836420  15.6033370  26.5795030  50.7865810
  16.8560640  25.9789790  50.1849790   7.9448050  28.4724110  41.8890680
   8.6319180  29.0193320  42.2698270   7.1580470  29.0164840  41.9240290
   7.2475260  25.4770140  41.5016040   7.7038040  26.2875390  41.7276230
   6.8963470  25.1593280  42.3334530   9.5507870  30.9876480  48.7308340
  10.1950090  31.1935860  49.4081760   9.9137310  30.2264880  48.2779190
   3.1487040  15.8207790  41.9738560   3.0201670  15.8125690  42.9223480
   2.3249060  16.1590880  41.6229570  10.8239950  28.9908830  47.4485790
  11.4662180  28.2901990  47.5617960  11.3489300  29.7707270  47.2682680
  12.5977570  29.7903730  50.6521850  12.9333810  30.3770420  51.3299770
  11.6777910  29.6596440  50.8819640   8.4266150  29.8395060  53.8209910
   8.1063020  29.1204300  54.3655600   7.7524510  30.5150130  53.8945970
   6.4680320  30.6855510  38.7643060   6.4590420  31.4185200  38.1487570
   5.5478680  30.4387090  38.8570020  11.6419750  20.0721220  49.1846710
  12.0100570  19.2516430  49.5126280  10.7817950  20.1323110  49.6002360
  15.0081780  19.0278160  39.9934270  14.3794940  19.1323830  39.2792500
  14.5133700  19.2474940  40.7828150   9.4539920  30.7483750  37.4268250
   9.5551900  30.5447740  36.4970230   8.5541660  30.4942030  37.6316030
   6.9765810  21.3064110  41.4092150   6.2681960  21.7750450  41.8505760
   7.2610290  20.6486120  42.0437340   8.6021740  22.7260810  49.4084680
   9.1006990  23.2006630  50.0736530   8.7444690  21.8024330  49.6154710
  11.0081240  18.0314770  42.8487940  10.8849020  18.0500900  41.8997450
  11.9565800  18.0793710  42.9686340   8.0958030  33.2670070  42.1215920
   8.3499530  33.2291460  41.1995290   7.1470510  33.1403400  42.1144170
   5.1800830  19.6149190  38.7842860   6.0291360  20.0519340  38.7183050
   4.8132100  19.9269450  39.6114920  15.8088600  18.9428770  50.2513070
  15.3062200  19.6834170  50.5906880  16.6245260  19.3312770  49.9349860
   4.0792250  25.8681550  37.2578390   4.8455520  25.7562910  37.8203820
   4.1566940  25.1719520  36.6055160   2.7739010  23.3006620  37.9411280
   2.8542600  22.3534130  38.0528680   3.6658760  23.6313500  38.0471940
   3.5753720  33.4502010  45.0445820   4.3116200  32.9017470  45.3154390
   3.9594640  34.3158020  44.9051810   2.5812000  32.6348080  54.2331400
   3.3824730  32.9560130  54.6466800   2.0663820  32.2743660  54.9551310
   6.6856030  32.6232320  36.8671390   7.4784640  32.9121150  36.4153180
   6.1660380  32.1924490  36.1883870  11.4176630  28.7427950  54.1806810
  10.8114790  28.7659550  53.4402560  11.1130740  28.0110990  54.7174060
   7.2033430  27.8435730  36.7313740   7.0984070  27.2288080  37.4575120
   7.0357650  27.3201620  35.9476750   7.3547750  26.5292530  52.7102970
   6.5893420  27.0977530  52.6257640   7.5363710  26.2368740  51.8171200
  10.4436160  26.9055760  37.3355730   9.8946260  27.3525060  37.9798470
  11.0655420  26.4005010  37.8593400  14.4971100  28.2597860  53.2677990
  15.2380570  28.5973620  52.7645450  13.7343780  28.4289920  52.7147760
   2.3332890  23.2651130  54.0717520   2.3738230  22.9665000  54.9802750
   3.1878390  23.6658740  53.9125040   6.1111280  25.8646680  39.2321030
   6.5327700  25.6986550  40.0752420   6.2362120  25.0546910  38.7376170
   4.2738700  21.8443230  52.0392010   3.7435160  21.3534180  51.4115350
   4.9426770  22.2727430  51.5049940   8.6238920  24.8884290  36.4798130
   9.1444580  24.1733310  36.1139280   9.2707320  25.5270160  36.7798640
  13.1716760  26.3112690  51.8033200  13.5857780  26.4657770  52.6523620
  12.2367760  26.4367910  51.9658980  13.6438930  23.6508850  53.8072350
  14.2259700  22.8961170  53.7192830  13.8200700  24.1816290  53.0303830
   4.7611000  18.8105600  52.1189300   4.6667870  18.1926350  51.3940170
   4.1808390  19.5371890  51.8919210   7.5272440  17.3678840  49.1516690
   7.0789740  17.3903100  48.3062240   6.8937640  16.9697860  49.7486990
   7.9331990  26.2633170  49.7729130   8.3520100  27.1065900  49.6005370
   7.0140620  26.4005210  49.5435910  10.2695890  23.9949350  51.1566970
  10.3892100  23.3990490  51.8961810  11.1289890  24.0319040  50.7368270
  12.6083790  24.5486540  49.7329480  12.0819010  25.0729160  49.1294620
  12.9515130  25.1813930  50.3639210   5.0070180  21.9379910  36.1779190
   4.8059240  21.0747270  36.5392530   4.8362230  21.8513270  35.2400790
   5.7839410  32.5686180  50.8886860   5.2460500  33.2932240  50.5695560
   6.0373370  32.0916520  50.0984200   7.0364660  20.5370700  52.4142790
   7.6264350  20.2286550  53.1020610   6.2184900  20.0650450  52.5702690
  11.8558090  20.1536510  52.6475810  11.1673610  19.4918050  52.5825800
  12.5764110  19.7074780  53.0924270  12.4858490  16.7488140  38.7066070
  12.7660780  15.9056040  39.0625490  11.7124220  16.9811250  39.2204820
   3.8052980  19.0380530  36.1657070   4.1078880  19.0447960  35.2576220
   4.5447570  18.6878390  36.6624730   8.6401620  33.8037390  51.1473510
   8.5660320  34.7072530  51.4545880   7.7380460  33.4849290  51.1195580
   7.0237910  17.9815150  37.1513270   6.6759910  17.3039140  36.5715720
   7.2250680  17.5204660  37.9656660   9.1886950  32.9695900  38.7699870
  10.0837740  33.3080870  38.7918630   9.2204580  32.2475310  38.1424150
   2.8283110  28.3422950  36.9986870   3.2657980  28.8852620  37.6544450
   3.3130840  27.5169900  37.0083210   4.6390830  29.4620990  42.1109100
   4.3386370  29.3385960  43.0113010   4.5328320  28.6029580  41.7024830
  14.8532940  28.2251550  49.5742230  14.0392780  28.6548710  49.8368020
  15.2607140  28.8369960  48.9611280  13.3133990  19.3044090  37.7696130
  13.7318870  19.1175070  36.9292790  13.0070050  18.4523140  38.0799060
  16.2023340  23.3639750  51.1011450  15.9709430  23.1352500  50.2009400
  16.4627890  24.2839300  51.0556340  14.6411410  18.5896180  53.8791150
  15.5181590  18.5979580  54.2625150  14.6532250  17.8527020  53.2683500
  16.2664400  22.5265590  48.2898720  15.3167110  22.4929130  48.4043710
  16.4477410  23.4365700  48.0548490   1.7683000  16.8306600  36.4400000
   2.4911130  17.3715540  36.7581220   2.0407520  16.5570020  35.5641540
  15.5774650  21.6999070  40.7071580  16.0733770  21.4669940  41.4920460
  15.3790720  20.8610910  40.2909220  15.3527530  16.2754150  49.6992260
  15.9899750  16.8888290  50.0651450  15.5002420  16.3114810  48.7541490
  17.8952080  18.1667940  36.4815400  18.8201390  18.0349120  36.2733690
  17.8727870  18.2460760  37.4351850  17.9690570  18.9378600  39.1072110
  17.1742070  18.8723720  39.6365020  18.1733850  19.8729240  39.0957460
   2.8171560  29.4088060  53.2501130   2.7741190  29.0380970  54.1315590
   2.9482570  30.3465630  53.3902950   6.5177590  30.9647650  48.8510850
   6.2768950  31.2322210  47.9641370   7.4580230  31.1353380  48.9061710
   8.7232010  17.4280340  52.6067360   8.6620900  18.0202170  53.3562770
   9.6632390  17.3206300  52.4617620  11.3606570  17.0850400  52.2459650
  11.9746980  17.4029690  51.5840730  11.9056130  16.5998990  52.8655510
   1.8827830  15.7644660  52.3598710   2.4310820  15.5832710  51.5964820
   1.9483140  14.9738770  52.8955020   2.6559590  32.3550310  50.3698910
   2.0619910  32.2235010  51.1088950   2.6483430  31.5188450  49.9041010
  12.1014610  15.6482540  48.5728940  11.2274450  15.9817650  48.3701870
  11.9925360  15.1755720  49.3980810  13.0086590  17.8553410  49.9570660
  12.6799950  17.0405170  49.5772390  13.9568890  17.8123220  49.8336350
   5.8916920  31.9353690  46.1056360   6.4081940  31.3241050  45.5804620
   6.5414300  32.4382470  46.5967370   8.6312420  32.8262180  46.9325340
   8.9190230  32.5716480  46.0558350   9.1435640  32.2739540  47.5230910
   9.8489430  16.5652380  47.5121850   9.0661220  17.0397880  47.7918610
   9.5552360  15.6607210  47.4035030  14.4010500  17.2675480  45.5570940
  14.8418590  17.2120580  44.7092540  14.1318090  18.1833490  45.6281120
  16.2649070  16.8990720  43.5679760  16.2037470  15.9551940  43.4210780
  17.0441100  17.0070810  44.1133220   7.7343650  18.9839130  43.0237880
   6.9218160  18.6096020  42.6833760   8.2385290  18.2284210  43.3259070
  12.2368630  15.6481580  44.2620950  12.8398000  16.2201790  44.7369470
  11.4961620  16.2121020  44.0394850  15.3803230  16.0503140  39.5361230
  15.5753860  16.9486590  39.8028660  14.5933100  15.8190220  40.0294180
   2.1764520  31.7316310  39.9753850   1.6512140  32.1124340  39.2715810
   2.1009100  32.3567080  40.6963560   3.5654990  17.3963910  38.5737540
   4.0947750  16.6093710  38.4445490   4.1983310  18.0755100  38.8073070
   5.7592830  17.1339050  41.6282930   5.1295570  16.4326360  41.7953060
   5.2197970  17.8943180  41.4116090   8.6984780  33.7478280  54.2993540
   9.6252090  33.5122550  54.3429500   8.6835210  34.5750280  53.8179570
  16.9329840  33.2903850  41.2967790  17.1082030  32.6041590  40.6528710
  16.2351410  33.8150900  40.9044460   5.8848390  16.4123030  54.0635420
   5.6032660  16.9156630  53.2996240   6.2668090  15.6144780  53.6977550
   4.7757490  33.6798690  38.8503100   5.5076310  33.3957970  38.3026990
   5.0351160  33.4411970  39.7402480   3.9372280  29.7963420  38.8549430
   3.3081160  30.2648520  39.4035260   4.0520110  28.9512640  39.2895620
  12.4863850  15.8276610  54.6415890  12.3729300  16.1471220  55.5367410
  13.3033590  16.2289120  54.3453170  11.3922000  23.8469080  25.0050630
  11.3116050  22.9323690  24.7342340  10.9786420  24.3436150  24.2990340
   9.5240040  25.6248100  26.8859900   8.7482140  25.1448540  27.1758470
  10.1752970  24.9453750  26.7116060   3.5405870  25.9367910  27.7635660
   2.7090750  25.6816620  28.1632170   4.1486850  26.0078680  28.4993580
  13.5447470  30.0308290  25.6659030  13.0829000  29.2595530  25.9946200
  14.3573020  30.0574360  26.1711480   3.5207130  29.9708000  27.9593680
   3.8235170  29.0805740  27.7803900   4.2650720  30.5278220  27.7315930
   9.7710780  32.3166300  25.2863020   9.1522220  32.7723800  24.7157460
  10.6262560  32.4717760  24.8852720   8.9649030  28.3005290  26.8930060
   8.8957310  27.3595230  26.7319190   9.7268890  28.3906700  27.4652630
   9.9954200  21.1075670  27.1198990  10.3719020  20.2347550  27.0072660
   9.8973710  21.4434370  26.2289430   4.1259210  19.4801300  22.5816430
   4.2325960  20.3805030  22.8885190   3.2151570  19.4319270  22.2911080
  13.7778320  18.6026110  24.0527330  14.5987940  18.1122680  24.0952810
  13.8112400  19.1923770  24.8059170   5.9666940  22.4487670  26.9141610
   6.4745160  22.9468640  27.5546630   6.4980180  21.6722870  26.7380970
  18.0677870  20.6192860  30.6170960  17.3630040  21.0074570  30.0986070
  18.3335790  21.3143150  31.2191890   4.2503040  17.0886230  31.1805030
   4.2521480  17.6058620  30.3750930   3.4207350  16.6116410  31.1574960
  10.6374130  27.2005540  22.6794930  10.0191400  27.6654990  22.1157650
  11.1497380  27.8933020  23.0964440   5.5005890  26.7281410  29.3578530
   5.1675270  27.3550330  29.9999600   5.6772570  27.2543290  28.5780200
  14.0139800  20.5426490  26.8254870  13.3095370  20.8311380  27.4057980
  14.3751960  21.3526600  26.4654430   3.9318370  18.7996190  29.1875480
   4.2735180  19.6438240  28.8929350   2.9934180  18.9479930  29.3040820
   4.7124990  28.6962210  31.1727710   5.3298990  29.3713290  30.8912160
   3.8518110  29.1050190  31.0815210  17.0826720  19.9881280  27.2164080
  16.1351630  20.0220260  27.3479510  17.4076710  20.8020230  27.6013440
   7.6146260  16.2878460  25.5120070   7.9221240  15.7325350  24.7955570
   6.6846960  16.4222920  25.3293060  13.1661320  32.0045750  27.8027530
  13.1788480  31.6008040  26.9349790  12.6136540  32.7793040  27.6988960
  14.4606740  28.7261970  22.8917700  14.3503070  27.7836300  23.0167120
  14.4574990  29.0877610  23.7780460  10.0027020  24.3527290  22.2480190
   9.0756300  24.2864670  22.4768660  10.1551840  25.2907420  22.1335430
   9.9896100  20.6244290  19.2447350   9.0499770  20.7858250  19.3299810
  10.3079360  21.3429970  18.6983340  14.0324310  25.9147590  22.7515440
  13.4136730  25.5767140  22.1041740  14.0148760  25.2707350  23.4594630
  13.4750870  22.0932130  30.1681250  13.0622050  22.9185840  30.4221240
  12.7426820  21.5077170  29.9757610   5.6083660  24.8792030  25.0299920
   5.2040660  24.1669280  24.5345820   5.6946780  24.5345270  25.9187960
   6.0765360  28.5659590  27.1939130   5.7793650  27.9605060  26.5146910
   7.0265180  28.6036900  27.0828490   4.3212280  21.6535240  28.8098960
   4.8726870  21.7630580  28.0352210   4.8355790  22.0272840  29.5254190
   5.1683790  28.3041280  33.8446930   4.2712320  28.5281250  34.0920330
   5.1936660  28.4276220  32.8958330  12.2089010  25.1534400  19.7588190
  12.6482290  24.3156830  19.6126010  12.9217430  25.7863800  19.8452330
   3.9955010  25.1754600  32.4204300   3.8562780  26.0477400  32.7891700
   3.1136370  24.8327410  32.2752240  10.3184390  30.0930470  23.7269430
  10.7580300  30.8354800  23.3124820  10.2571280  30.3357040  24.6508390
   5.7935360  31.1176300  34.6289450   5.7650790  31.5219250  33.7617880
   5.6300330  30.1886660  34.4661050  15.7906150  16.4077210  18.0729230
  15.4778810  16.5004040  18.9728300  16.5518620  16.9858240  18.0226660
   2.3088290  23.7737010  22.5306570   2.1885890  24.4999100  21.9187840
   1.9989180  23.0039920  22.0534480  11.0100170  32.7944250  31.6548440
  11.5244840  32.7052260  32.4570870  10.1669250  33.1403950  31.9476350
  12.9854570  33.0799590  21.0832440  12.8255710  32.7902530  21.9814270
  12.8201280  32.3039720  20.5477670   5.4642950  32.8598120  22.8604060
   5.2885430  31.9433660  22.6471860   4.6098690  33.2185410  23.1001860
  12.6880700  30.5887150  19.6430440  11.9945860  30.5864440  18.9832720
  13.4303560  30.1646470  19.2124610  12.2530630  32.2149860  23.7178930
  12.7087580  31.4339240  24.0317550  12.5923150  32.9256680  24.2620110
  17.0007440  21.1448710  34.0503370  16.3851710  21.6528380  33.5218830
  16.6803860  20.2447040  33.9929310   4.7751950  17.1172080  25.9130240
   4.3320100  17.8981620  25.5814760   5.3336940  17.4401970  26.6201180
   9.0621760  19.9840600  31.5165560   8.6001130  20.1923620  32.3285500
   8.6599870  19.1699950  31.2136230  11.1575980  22.7051300  34.7461010
  11.4829390  21.8715050  34.4063240  11.9456310  23.2279820  34.8939340
   7.8910770  16.7382780  20.7936070   7.2664950  16.7342650  21.5189380
   7.8040890  15.8713740  20.3972040   6.8127850  17.6619410  27.7719840
   7.1100180  18.5682240  27.6911860   7.3613410  17.1738190  27.1579410
   4.5666170  22.2405650  23.6411490   4.3407090  22.0242820  24.5458110
   3.7858700  22.6734110  23.2957460  11.7963930  22.2469020  22.2402140
  11.1972820  22.9704820  22.0565760  12.3443540  22.1845800  21.4578590
   7.0065380  23.1391230  34.3071760   6.9108980  22.1985960  34.1572160
   7.8497360  23.3606300  33.9119830  10.4028800  20.8832560  24.2705420
  10.7958370  21.2004760  23.4574110  10.7645650  20.0044440  24.3849940
   8.7120970  19.6339870  35.5302280   8.0219290  19.4412070  36.1648370
   9.4553270  19.9174510  36.0626580  10.9883940  23.4738310  28.3656200
  10.2565060  23.9825120  28.7146300  10.5908280  22.6568290  28.0644980
   7.4261330  20.1492510  26.7708690   7.4297390  19.7082460  25.9213230
   8.3212450  20.4709840  26.8780510   3.2763710  20.0319000  25.7302900
   2.9363760  20.5094230  26.4869950   2.5141030  19.5784120  25.3704000
   7.4881480  21.1504590  19.7615450   7.6094300  21.1091070  20.7101270
   7.1029990  22.0128740  19.6062180  11.4509850  18.9271990  27.7779140
  11.4682590  19.3780640  28.6220990  11.2025430  18.0277630  27.9912580
   6.5002980  23.4605730  19.1598750   5.9319880  23.0123980  18.5334660
   7.2091980  23.8198510  18.6263900  14.8780600  16.3404170  33.6165520
  15.2026370  15.6093830  34.1423500  14.9137110  16.0217810  32.7146510
   7.7269300  24.2094290  28.5174100   8.0939430  23.7352860  29.2635440
   7.5374360  25.0835860  28.8582440   5.5168670  23.2502930  30.8358310
   5.2125740  24.1294910  31.0608670   6.4715130  23.3102720  30.8715750
   4.0450460  27.4563920  21.4325160   3.2712720  26.9161540  21.2723880
   4.7745090  26.9370530  21.0942920  14.8038440  26.4529280  27.2251550
  15.5237560  26.9484570  26.8347660  14.6020260  25.7747170  26.5805420
  10.2648380  17.8467240  21.3680940   9.4512990  17.3480410  21.2926250
  10.0710330  18.6865490  20.9517290  10.1857240  26.5238340  33.1120550
  10.1194550  25.6034010  32.8578140   9.5562380  26.6213780  33.8265190
  12.9796770  22.2186890  19.6643100  13.8676390  22.5304120  19.4894440
  12.9501860  21.3459140  19.2723680   4.0887860  27.1244300  25.0703970
   4.6066530  26.3212560  25.0160860   3.6371880  27.0623440  25.9120800
   8.9757360  28.3910580  20.3431270   9.3173060  29.1352810  19.8474590
   8.1470070  28.7041700  20.7056100   4.7745520  24.5489910  34.8669220
   4.4745660  24.6947090  33.9697040   5.5456760  23.9895200  34.7742610
  15.2511040  23.5298730  19.1322960  15.1674760  23.9612950  18.2819400
  15.9705230  23.9897080  19.5649780  16.2798290  30.3840990  21.8605090
  15.6374450  29.7296610  22.1348810  15.8928950  30.7896080  21.0845760
  11.8584770  27.7126420  25.7076780  12.2108590  27.1154550  25.0478150
  10.9747100  27.3870650  25.8785030   7.9448050  28.4724110  23.1147190
   8.6319180  29.0193320  23.4954780   7.1580470  29.0164840  23.1496800
   7.2475260  25.4770140  22.7272550   7.7038040  26.2875390  22.9532740
   6.8963470  25.1593280  23.5591040   9.5507870  30.9876480  29.9564850
  10.1950090  31.1935860  30.6338270   9.9137310  30.2264880  29.5035700
   3.1487040  15.8207790  23.1995070   3.0201670  15.8125690  24.1479990
   2.3249060  16.1590880  22.8486080  10.8239950  28.9908830  28.6742300
  11.4662180  28.2901990  28.7874470  11.3489300  29.7707270  28.4939190
  14.6695670  29.2757450  18.3981440  14.4433250  28.5587890  18.9906080
  14.2791870  29.0269890  17.5603190  14.2511920  27.1929390  20.0595600
  13.9633620  27.6542080  20.8473480  15.0464090  26.7327160  20.3279820
   8.4266150  29.8395060  35.0466420   8.1063020  29.1204300  35.5912110
   7.7524510  30.5150130  35.1202480   6.4680320  30.6855510  19.9899570
   6.4590420  31.4185200  19.3744080   5.5478680  30.4387090  20.0826530
  11.6419750  20.0721220  30.4103220  12.0100570  19.2516430  30.7382790
  10.7817950  20.1323110  30.8258870  15.0081780  19.0278160  21.2190780
  14.3794940  19.1323830  20.5049010  14.5133700  19.2474940  22.0084660
   9.4539920  30.7483750  18.6524760   9.5551900  30.5447740  17.7226740
   8.5541660  30.4942030  18.8572540   6.9765810  21.3064110  22.6348660
   6.2681960  21.7750450  23.0762270   7.2610290  20.6486120  23.2693850
   8.6021740  22.7260810  30.6341190   9.1006990  23.2006630  31.2993040
   8.7444690  21.8024330  30.8411220  11.0081240  18.0314770  24.0744450
  10.8849020  18.0500900  23.1253960  11.9565800  18.0793710  24.1942850
   8.0958030  33.2670070  23.3472430   8.3499530  33.2291460  22.4251800
   7.1470510  33.1403400  23.3400680   5.1800830  19.6149190  20.0099370
   6.0291360  20.0519340  19.9439560   4.8132100  19.9269450  20.8371430
  15.8088600  18.9428770  31.4769580  15.3062200  19.6834170  31.8163390
  16.6245260  19.3312770  31.1606370  14.1010610  24.1861950  24.9230940
  13.1600750  24.2012180  25.0978630  14.4154680  23.3997910  25.3691240
   4.0792250  25.8681550  18.4834900   4.8455520  25.7562910  19.0460330
   4.1566940  25.1719520  17.8311670   2.7739010  23.3006620  19.1667790
   2.8542600  22.3534130  19.2785190   3.6658760  23.6313500  19.2728450
  16.1036190  31.3570800  26.5985200  16.2283610  32.1801970  27.0709010
  16.9701750  31.1461530  26.2509350   3.5753720  33.4502010  26.2702330
   4.3116200  32.9017470  26.5410900   3.9594640  34.3158020  26.1308320
   2.5812000  32.6348080  35.4587910   3.3824730  32.9560130  35.8723310
   2.0663820  32.2743660  36.1807820   6.6856030  32.6232320  18.0927900
   7.4784640  32.9121150  17.6409690   6.1660380  32.1924490  17.4140380
  15.7386200  31.8502450  19.5164640  15.4527710  31.4367590  18.7018820
  15.5405750  32.7790160  19.3965160   7.2033430  27.8435730  17.9570250
   7.0984070  27.2288080  18.6831630   7.0357650  27.3201620  17.1733260
   7.3547750  26.5292530  33.9359480   6.5893420  27.0977530  33.8514150
   7.5363710  26.2368740  33.0427710  10.4436160  26.9055760  18.5612240
   9.8946260  27.3525060  19.2054980  11.0655420  26.4005010  19.0849910
   2.3332890  23.2651130  35.2974030   2.3738230  22.9665000  36.2059260
   3.1878390  23.6658740  35.1381550   6.1111280  25.8646680  20.4577540
   6.5327700  25.6986550  21.3008930   6.2362120  25.0546910  19.9632680
   4.2738700  21.8443230  33.2648520   3.7435160  21.3534180  32.6371860
   4.9426770  22.2727430  32.7306450   8.6238920  24.8884290  17.7054640
   9.1444580  24.1733310  17.3395790   9.2707320  25.5270160  18.0055150
   4.7611000  18.8105600  33.3445810   4.6667870  18.1926350  32.6196680
   4.1808390  19.5371890  33.1175720   7.5272440  17.3678840  30.3773200
   7.0789740  17.3903100  29.5318750   6.8937640  16.9697860  30.9743500
   7.9331990  26.2633170  30.9985640   8.3520100  27.1065900  30.8261880
   7.0140620  26.4005210  30.7692420  10.2695890  23.9949350  32.3823480
  10.3892100  23.3990490  33.1218320  11.1289890  24.0319040  31.9624780
  12.6083790  24.5486540  30.9585990  12.0819010  25.0729160  30.3551130
  12.9515130  25.1813930  31.5895720   5.0070180  21.9379910  17.4035700
   4.8059240  21.0747270  17.7649040   4.8362230  21.8513270  16.4657300
   5.7839410  32.5686180  32.1143370   5.2460500  33.2932240  31.7952070
   6.0373370  32.0916520  31.3240710   7.0364660  20.5370700  33.6399300
   7.6264350  20.2286550  34.3277120   6.2184900  20.0650450  33.7959200
  11.8558090  20.1536510  33.8732320  11.1673610  19.4918050  33.8082310
  12.5764110  19.7074780  34.3180780  12.4858490  16.7488140  19.9322580
  12.7660780  15.9056040  20.2882000  11.7124220  16.9811250  20.4461330
   3.8052980  19.0380530  17.3913580   4.1078880  19.0447960  16.4832730
   4.5447570  18.6878390  17.8881240   8.6401620  33.8037390  32.3730020
   8.5660320  34.7072530  32.6802390   7.7380460  33.4849290  32.3452090
   7.0237910  17.9815150  18.3769780   6.6759910  17.3039140  17.7972230
   7.2250680  17.5204660  19.1913170   9.1886950  32.9695900  19.9956380
  10.0837740  33.3080870  20.0175140   9.2204580  32.2475310  19.3680660
   2.8283110  28.3422950  18.2243380   3.2657980  28.8852620  18.8800960
   3.3130840  27.5169900  18.2339720   4.6390830  29.4620990  23.3365610
   4.3386370  29.3385960  24.2369520   4.5328320  28.6029580  22.9281340
  17.4082750  29.2417390  18.0392290  16.5775710  29.3094040  18.5099520
  17.5854580  30.1321510  17.7359150  16.8639210  25.9864870  20.5426490
  17.6258120  26.5561520  20.6486180  16.8793580  25.4192070  21.3134800
  17.8699180  26.8414970  25.3868420  18.2408010  26.0582290  24.9804390
  18.5101110  27.5304070  25.2085720  16.9158380  26.2799240  17.6999010
  17.1907220  27.1878120  17.5718230  16.7269120  26.2161770  18.6361000
  13.3133990  19.3044090  18.9952640  13.7318870  19.1175070  18.1549300
  13.0070050  18.4523140  19.3055570  16.8123720  24.2168230  22.6928440
  16.4367320  23.4496160  22.2609730  16.0826840  24.5990930  23.1803370
  14.6411410  18.5896180  35.1047660  15.5181590  18.5979580  35.4881660
  14.6532250  17.8527020  34.4940010  16.0874680  22.4425720  25.9935680
  16.6112160  21.9488370  25.3625850  16.6734100  22.5776080  26.7383250
  16.2664400  22.5265590  29.5155230  15.3167110  22.4929130  29.6300220
  16.4477410  23.4365700  29.2805000   1.7683000  16.8306600  17.6656510
   2.4911130  17.3715540  17.9837730   2.0407520  16.5570020  16.7898050
  15.5774650  21.6999070  21.9328090  16.0733770  21.4669940  22.7176970
  15.3790720  20.8610910  21.5165730  17.0061810  20.3360020  24.4665770
  16.8961090  20.1816060  25.4048040  17.7669400  19.8080960  24.2241180
  15.3527530  16.2754150  30.9248770  15.9899750  16.8888290  31.2907960
  15.5002420  16.3114810  29.9798000  17.8952080  18.1667940  17.7071910
  18.8201390  18.0349120  17.4990200  17.8727870  18.2460760  18.6608360
  17.9690570  18.9378600  20.3328620  17.1742070  18.8723720  20.8621530
  18.1733850  19.8729240  20.3213970  14.9108990  32.9770150  24.3267010
  15.5068060  32.6554720  23.6501430  15.1687140  32.5041970  25.1180280
   2.8171560  29.4088060  34.4757640   2.7741190  29.0380970  35.3572100
   2.9482570  30.3465630  34.6159460   6.5177590  30.9647650  30.0767360
   6.2768950  31.2322210  29.1897880   7.4580230  31.1353380  30.1318220
   8.7232010  17.4280340  33.8323870   8.6620900  18.0202170  34.5819280
   9.6632390  17.3206300  33.6874130  11.3606570  17.0850400  33.4716160
  11.9746980  17.4029690  32.8097240  11.9056130  16.5998990  34.0912020
  17.7781750  32.9842030  30.8778000  17.2840030  33.3810900  30.1605130
  17.1695040  32.3591240  31.2715280   1.8827830  15.7644660  33.5855220
   2.4310820  15.5832710  32.8221330   1.9483140  14.9738770  34.1211530
   2.6559590  32.3550310  31.5955420   2.0619910  32.2235010  32.3345460
   2.6483430  31.5188450  31.1297520  12.1014610  15.6482540  29.7985450
  11.2274450  15.9817650  29.5958380  11.9925360  15.1755720  30.6237320
  13.0086590  17.8553410  31.1827170  12.6799950  17.0405170  30.8028900
  13.9568890  17.8123220  31.0592860  15.4621200  33.6265450  28.1564740
  15.0024170  34.3781260  27.7822760  14.8333660  32.9071920  28.0979540
   5.8916920  31.9353690  27.3312870   6.4081940  31.3241050  26.8061130
   6.5414300  32.4382470  27.8223880   8.6312420  32.8262180  28.1581850
   8.9190230  32.5716480  27.2814860   9.1435640  32.2739540  28.7487420
   9.8489430  16.5652380  28.7378360   9.0661220  17.0397880  29.0175120
   9.5552360  15.6607210  28.6291540  14.4010500  17.2675480  26.7827450
  14.8418590  17.2120580  25.9349050  14.1318090  18.1833490  26.8537630
  16.2649070  16.8990720  24.7936270  16.2037470  15.9551940  24.6467290
  17.0441100  17.0070810  25.3389730   7.7343650  18.9839130  24.2494390
   6.9218160  18.6096020  23.9090270   8.2385290  18.2284210  24.5515580
  12.2368630  15.6481580  25.4877460  12.8398000  16.2201790  25.9625980
  11.4961620  16.2121020  25.2651360  15.3803230  16.0503140  20.7617740
  15.5753860  16.9486590  21.0285170  14.5933100  15.8190220  21.2550690
   2.1764520  31.7316310  21.2010360   1.6512140  32.1124340  20.4972320
   2.1009100  32.3567080  21.9220070   3.5654990  17.3963910  19.7994050
   4.0947750  16.6093710  19.6702000   4.1983310  18.0755100  20.0329580
   5.7592830  17.1339050  22.8539440   5.1295570  16.4326360  23.0209570
   5.2197970  17.8943180  22.6372600   8.6984780  33.7478280  35.5250050
   9.6252090  33.5122550  35.5686010   8.6835210  34.5750280  35.0436080
  16.9329840  33.2903850  22.5224300  17.1082030  32.6041590  21.8785220
  16.2351410  33.8150900  22.1300970   5.8848390  16.4123030  35.2891930
   5.6032660  16.9156630  34.5252750   6.2668090  15.6144780  34.9234060
   4.7757490  33.6798690  20.0759610   5.5076310  33.3957970  19.5283500
   5.0351160  33.4411970  20.9658990   3.9372280  29.7963420  20.0805940
   3.3081160  30.2648520  20.6291770   4.0520110  28.9512640  20.5152130
  12.4863850  15.8276610  35.8672400  12.3729300  16.1471220  36.7623920
  13.3033590  16.2289120  35.5709680  11.3922000  23.8469080   6.2307140
  11.3116050  22.9323690   5.9598850  10.9786420  24.3436150   5.5246850
   9.5240040  25.6248100   8.1116410   8.7482140  25.1448540   8.4014980
  10.1752970  24.9453750   7.9372570   3.5405870  25.9367910   8.9892170
   2.7090750  25.6816620   9.3888680   4.1486850  26.0078680   9.7250090
  13.5447470  30.0308290   6.8915540  13.0829000  29.2595530   7.2202710
  14.3573020  30.0574360   7.3967990   3.5207130  29.9708000   9.1850190
   3.8235170  29.0805740   9.0060410   4.2650720  30.5278220   8.9572440
   9.7710780  32.3166300   6.5119530   9.1522220  32.7723800   5.9413970
  10.6262560  32.4717760   6.1109230   8.9649030  28.3005290   8.1186570
   8.8957310  27.3595230   7.9575700   9.7268890  28.3906700   8.6909140
   9.9954200  21.1075670   8.3455500  10.3719020  20.2347550   8.2329170
   9.8973710  21.4434370   7.4545940   4.1259210  19.4801300   3.8072940
   4.2325960  20.3805030   4.1141700   3.2151570  19.4319270   3.5167590
  13.7778320  18.6026110   5.2783840  14.5987940  18.1122680   5.3209320
  13.8112400  19.1923770   6.0315680   5.9666940  22.4487670   8.1398120
   6.4745160  22.9468640   8.7803140   6.4980180  21.6722870   7.9637480
  18.0677870  20.6192860  11.8427470  17.3630040  21.0074570  11.3242580
  18.3335790  21.3143150  12.4448400   4.2503040  17.0886230  12.4061540
   4.2521480  17.6058620  11.6007440   3.4207350  16.6116410  12.3831470
  10.6374130  27.2005540   3.9051440  10.0191400  27.6654990   3.3414160
  11.1497380  27.8933020   4.3220950   5.5005890  26.7281410  10.5835040
   5.1675270  27.3550330  11.2256110   5.6772570  27.2543290   9.8036710
  14.0139800  20.5426490   8.0511380  13.3095370  20.8311380   8.6314490
  14.3751960  21.3526600   7.6910940   3.9318370  18.7996190  10.4131990
   4.2735180  19.6438240  10.1185860   2.9934180  18.9479930  10.5297330
   4.7124990  28.6962210  12.3984220   5.3298990  29.3713290  12.1168670
   3.8518110  29.1050190  12.3071720  15.6302580  30.1601620  10.3138860
  14.9466100  30.8300730  10.3055530  16.1696870  30.3582270   9.5483720
  17.0826720  19.9881280   8.4420590  16.1351630  20.0220260   8.5736020
  17.4076710  20.8020230   8.8269950   7.6146260  16.2878460   6.7376580
   7.9221240  15.7325350   6.0212080   6.6846960  16.4222920   6.5549570
  13.1661320  32.0045750   9.0284040  13.1788480  31.6008040   8.1606300
  12.6136540  32.7793040   8.9245470  14.4606740  28.7261970   4.1174210
  14.3503070  27.7836300   4.2423630  14.4574990  29.0877610   5.0036970
  12.5646760  26.9075590  10.3566650  12.9815550  26.6935700   9.5220110
  13.2886580  27.1648380  10.9275270  10.0027020  24.3527290   3.4736700
   9.0756300  24.2864670   3.7025170  10.1551840  25.2907420   3.3591940
  16.5108860  25.3062810  10.4482890  15.6827490  25.3755900   9.9733020
  17.1059340  25.8917120   9.9798720  14.0324310  25.9147590   3.9771950
  13.4136730  25.5767140   3.3298250  14.0148760  25.2707350   4.6851140
  13.4750870  22.0932130  11.3937760  13.0622050  22.9185840  11.6477750
  12.7426820  21.5077170  11.2014120   5.6083660  24.8792030   6.2556430
   5.2040660  24.1669280   5.7602330   5.6946780  24.5345270   7.1444470
   6.0765360  28.5659590   8.4195640   5.7793650  27.9605060   7.7403420
   7.0265180  28.6036900   8.3085000   4.3212280  21.6535240  10.0355470
   4.8726870  21.7630580   9.2608720   4.8355790  22.0272840  10.7510700
  14.1650970  32.1391460  12.0818740  13.6881530  32.9463650  11.8891350
  13.4812760  31.4869790  12.2344950   5.1683790  28.3041280  15.0703440
   4.2712320  28.5281250  15.3176840   5.1936660  28.4276220  14.1214840
   3.9955010  25.1754600  13.6460810   3.8562780  26.0477400  14.0148210
   3.1136370  24.8327410  13.5008750  10.3184390  30.0930470   4.9525940
  10.7580300  30.8354800   4.5381330  10.2571280  30.3357040   5.8764900
   5.7935360  31.1176300  15.8545960   5.7650790  31.5219250  14.9874390
   5.6300330  30.1886660  15.6917560   2.3088290  23.7737010   3.7563080
   2.1885890  24.4999100   3.1444350   1.9989180  23.0039920   3.2790990
  17.7450180  31.9003400  17.1510130  18.2209900  32.3786290  17.8299210
  18.3657340  31.8320890  16.4255630  17.1483430  29.0916250  14.3110140
  17.2746490  28.8528130  13.3927320  17.1904810  28.2600790  14.7832220
  11.0100170  32.7944250  12.8804950  11.5244840  32.7052260  13.6827380
  10.1669250  33.1403950  13.1732860  12.9854570  33.0799590   2.3088950
  12.8255710  32.7902530   3.2070780  12.8201280  32.3039720   1.7734180
   5.4642950  32.8598120   4.0860570   5.2885430  31.9433660   3.8728370
   4.6098690  33.2185410   4.3258370  12.2530630  32.2149860   4.9435440
  12.7087580  31.4339240   5.2574060  12.5923150  32.9256680   5.4876620
  17.0007440  21.1448710  15.2759880  16.3851710  21.6528380  14.7475340
  16.6803860  20.2447040  15.2185820   4.7751950  17.1172080   7.1386750
   4.3320100  17.8981620   6.8071270   5.3336940  17.4401970   7.8457690
   9.0621760  19.9840600  12.7422070   8.6001130  20.1923620  13.5542010
   8.6599870  19.1699950  12.4392740  14.0626270  21.2049550  13.8718730
  13.2119860  20.9055300  14.1927800  13.9028060  21.4491560  12.9602550
  11.1575980  22.7051300  15.9717520  11.4829390  21.8715050  15.6319750
  11.9456310  23.2279820  16.1195850   6.8127850  17.6619410   8.9976350
   7.1100180  18.5682240   8.9168370   7.3613410  17.1738190   8.3835920
   4.5666170  22.2405650   4.8668000   4.3407090  22.0242820   5.7714620
   3.7858700  22.6734110   4.5213970  11.7963930  22.2469020   3.4658650
  11.1972820  22.9704820   3.2822270  12.3443540  22.1845800   2.6835100
   7.0065380  23.1391230  15.5328270   6.9108980  22.1985960  15.3828670
   7.8497360  23.3606300  15.1376340  10.4028800  20.8832560   5.4961930
  10.7958370  21.2004760   4.6830620  10.7645650  20.0044440   5.6106450
   8.7120970  19.6339870  16.7558790   8.0219290  19.4412070  17.3904880
   9.4553270  19.9174510  17.2883090  10.9883940  23.4738310   9.5912710
  10.2565060  23.9825120   9.9402810  10.5908280  22.6568290   9.2901490
   7.4261330  20.1492510   7.9965200   7.4297390  19.7082460   7.1469740
   8.3212450  20.4709840   8.1037020   3.2763710  20.0319000   6.9559410
   2.9363760  20.5094230   7.7126460   2.5141030  19.5784120   6.5960510
  11.4509850  18.9271990   9.0035650  11.4682590  19.3780640   9.8477500
  11.2025430  18.0277630   9.2169090  14.8780600  16.3404170  14.8422030
  15.2026370  15.6093830  15.3680010  14.9137110  16.0217810  13.9403020
   7.7269300  24.2094290   9.7430610   8.0939430  23.7352860  10.4891950
   7.5374360  25.0835860  10.0838950   5.5168670  23.2502930  12.0614820
   5.2125740  24.1294910  12.2865180   6.4715130  23.3102720  12.0972260
   4.0450460  27.4563920   2.6581670   3.2712720  26.9161540   2.4980390
   4.7745090  26.9370530   2.3199430  14.8038440  26.4529280   8.4508060
  15.5237560  26.9484570   8.0604170  14.6020260  25.7747170   7.8061930
  10.2648380  17.8467240   2.5937450   9.4512990  17.3480410   2.5182760
  10.0710330  18.6865490   2.1773800  10.1857240  26.5238340  14.3377060
  10.1194550  25.6034010  14.0834650   9.5562380  26.6213780  15.0521700
   4.0887860  27.1244300   6.2960480   4.6066530  26.3212560   6.2417370
   3.6371880  27.0623440   7.1377310   4.7745520  24.5489910  16.0925730
   4.4745660  24.6947090  15.1953550   5.5456760  23.9895200  15.9999120
  10.1173970  29.3458910  14.0880860  10.1318510  28.4139870  13.8699770
   9.4099070  29.4318670  14.7270630  16.3285180  25.9866250  13.4349440
  15.6033370  26.5795030  13.2378830  16.8560640  25.9789790  12.6362810
  16.2798290  30.3840990   3.0861600  15.6374450  29.7296610   3.3605320
  15.8928950  30.7896080   2.3102270  11.8584770  27.7126420   6.9333290
  12.2108590  27.1154550   6.2734660  10.9747100  27.3870650   7.1041540
   7.9448050  28.4724110   4.3403700   8.6319180  29.0193320   4.7211290
   7.1580470  29.0164840   4.3753310   7.2475260  25.4770140   3.9529060
   7.7038040  26.2875390   4.1789250   6.8963470  25.1593280   4.7847550
   9.5507870  30.9876480  11.1821360  10.1950090  31.1935860  11.8594780
   9.9137310  30.2264880  10.7292210   3.1487040  15.8207790   4.4251580
   3.0201670  15.8125690   5.3736500   2.3249060  16.1590880   4.0742590
  10.8239950  28.9908830   9.8998810  11.4662180  28.2901990  10.0130980
  11.3489300  29.7707270   9.7195700  12.5977570  29.7903730  13.1034870
  12.9333810  30.3770420  13.7812790  11.6777910  29.6596440  13.3332660
   8.4266150  29.8395060  16.2722930   8.1063020  29.1204300  16.8168620
   7.7524510  30.5150130  16.3458990  11.6419750  20.0721220  11.6359730
  12.0100570  19.2516430  11.9639300  10.7817950  20.1323110  12.0515380
  15.0081780  19.0278160   2.4447290  14.3794940  19.1323830   1.7305520
  14.5133700  19.2474940   3.2341170   6.9765810  21.3064110   3.8605170
   6.2681960  21.7750450   4.3018780   7.2610290  20.6486120   4.4950360
   8.6021740  22.7260810  11.8597700   9.1006990  23.2006630  12.5249550
   8.7444690  21.8024330  12.0667730  11.0081240  18.0314770   5.3000960
  10.8849020  18.0500900   4.3510470  11.9565800  18.0793710   5.4199360
   8.0958030  33.2670070   4.5728940   8.3499530  33.2291460   3.6508310
   7.1470510  33.1403400   4.5657190  15.8088600  18.9428770  12.7026090
  15.3062200  19.6834170  13.0419900  16.6245260  19.3312770  12.3862880
  14.1010610  24.1861950   6.1487450  13.1600750  24.2012180   6.3235140
  14.4154680  23.3997910   6.5947750  16.1036190  31.3570800   7.8241710
  16.2283610  32.1801970   8.2965520  16.9701750  31.1461530   7.4765860
   3.5753720  33.4502010   7.4958840   4.3116200  32.9017470   7.7667410
   3.9594640  34.3158020   7.3564830   2.5812000  32.6348080  16.6844420
   3.3824730  32.9560130  17.0979820   2.0663820  32.2743660  17.4064330
  11.4176630  28.7427950  16.6319830  10.8114790  28.7659550  15.8915580
  11.1130740  28.0110990  17.1687080  12.8477000  32.4708240  15.2429240
  13.7998750  32.3866260  15.1929480  12.7005220  33.1349950  15.9163030
   7.3547750  26.5292530  15.1615990   6.5893420  27.0977530  15.0770660
   7.5363710  26.2368740  14.2684220  14.4971100  28.2597860  15.7191010
  15.2380570  28.5973620  15.2158470  13.7343780  28.4289920  15.1660780
   2.3332890  23.2651130  16.5230540   2.3738230  22.9665000  17.4315770
   3.1878390  23.6658740  16.3638060   4.2738700  21.8443230  14.4905030
   3.7435160  21.3534180  13.8628370   4.9426770  22.2727430  13.9562960
  13.1716760  26.3112690  14.2546220  13.5857780  26.4657770  15.1036640
  12.2367760  26.4367910  14.4172000  13.6438930  23.6508850  16.2585370
  14.2259700  22.8961170  16.1705850  13.8200700  24.1816290  15.4816850
   4.7611000  18.8105600  14.5702320   4.6667870  18.1926350  13.8453190
   4.1808390  19.5371890  14.3432230   7.5272440  17.3678840  11.6029710
   7.0789740  17.3903100  10.7575260   6.8937640  16.9697860  12.2000010
   7.9331990  26.2633170  12.2242150   8.3520100  27.1065900  12.0518390
   7.0140620  26.4005210  11.9948930  10.2695890  23.9949350  13.6079990
  10.3892100  23.3990490  14.3474830  11.1289890  24.0319040  13.1881290
  12.6083790  24.5486540  12.1842500  12.0819010  25.0729160  11.5807640
  12.9515130  25.1813930  12.8152230   5.7839410  32.5686180  13.3399880
   5.2460500  33.2932240  13.0208580   6.0373370  32.0916520  12.5497220
   7.0364660  20.5370700  14.8655810   7.6264350  20.2286550  15.5533630
   6.2184900  20.0650450  15.0215710  11.8558090  20.1536510  15.0988830
  11.1673610  19.4918050  15.0338820  12.5764110  19.7074780  15.5437290
   8.6401620  33.8037390  13.5986530   8.5660320  34.7072530  13.9058900
   7.7380460  33.4849290  13.5708600   4.6390830  29.4620990   4.5622120
   4.3386370  29.3385960   5.4626030   4.5328320  28.6029580   4.1537850
  16.1681300  31.4999570  13.9279090  15.5683290  31.5592130  13.1843010
  16.2975200  30.5604550  14.0575940  16.8639210  25.9864870   1.7683000
  17.6258120  26.5561520   1.8742690  16.8793580  25.4192070   2.5391310
  17.8699180  26.8414970   6.6124930  18.2408010  26.0582290   6.2060900
  18.5101110  27.5304070   6.4342230  14.8532940  28.2251550  12.0255250
  14.0392780  28.6548710  12.2881040  15.2607140  28.8369960  11.4124300
  16.8123720  24.2168230   3.9184950  16.4367320  23.4496160   3.4866240
  16.0826840  24.5990930   4.4059880  16.2023340  23.3639750  13.5524470
  15.9709430  23.1352500  12.6522420  16.4627890  24.2839300  13.5069360
  14.6411410  18.5896180  16.3304170  15.5181590  18.5979580  16.7138170
  14.6532250  17.8527020  15.7196520  16.0874680  22.4425720   7.2192190
  16.6112160  21.9488370   6.5882360  16.6734100  22.5776080   7.9639760
  16.2664400  22.5265590  10.7411740  15.3167110  22.4929130  10.8556730
  16.4477410  23.4365700  10.5061510  15.5774650  21.6999070   3.1584600
  16.0733770  21.4669940   3.9433480  15.3790720  20.8610910   2.7422240
  17.0061810  20.3360020   5.6922280  16.8961090  20.1816060   6.6304550
  17.7669400  19.8080960   5.4497690  15.3527530  16.2754150  12.1505280
  15.9899750  16.8888290  12.5164470  15.5002420  16.3114810  11.2054510
  14.9108990  32.9770150   5.5523520  15.5068060  32.6554720   4.8757940
  15.1687140  32.5041970   6.3436790   2.8171560  29.4088060  15.7014150
   2.7741190  29.0380970  16.5828610   2.9482570  30.3465630  15.8415970
   6.5177590  30.9647650  11.3023870   6.2768950  31.2322210  10.4154390
   7.4580230  31.1353380  11.3574730   8.7232010  17.4280340  15.0580380
   8.6620900  18.0202170  15.8075790   9.6632390  17.3206300  14.9130640
  11.3606570  17.0850400  14.6972670  11.9746980  17.4029690  14.0353750
  11.9056130  16.5998990  15.3168530  17.7781750  32.9842030  12.1034510
  17.2840030  33.3810900  11.3861640  17.1695040  32.3591240  12.4971790
   1.8827830  15.7644660  14.8111730   2.4310820  15.5832710  14.0477840
   1.9483140  14.9738770  15.3468040   2.6559590  32.3550310  12.8211930
   2.0619910  32.2235010  13.5601970   2.6483430  31.5188450  12.3554030
  12.1014610  15.6482540  11.0241960  11.2274450  15.9817650  10.8214890
  11.9925360  15.1755720  11.8493830  13.0086590  17.8553410  12.4083680
  12.6799950  17.0405170  12.0285410  13.9568890  17.8123220  12.2849370
  15.4621200  33.6265450   9.3821250  15.0024170  34.3781260   9.0079270
  14.8333660  32.9071920   9.3236050   5.8916920  31.9353690   8.5569380
   6.4081940  31.3241050   8.0317640   6.5414300  32.4382470   9.0480390
   8.6312420  32.8262180   9.3838360   8.9190230  32.5716480   8.5071370
   9.1435640  32.2739540   9.9743930   9.8489430  16.5652380   9.9634870
   9.0661220  17.0397880  10.2431630   9.5552360  15.6607210   9.8548050
  14.4010500  17.2675480   8.0083960  14.8418590  17.2120580   7.1605560
  14.1318090  18.1833490   8.0794140  16.2649070  16.8990720   6.0192780
  16.2037470  15.9551940   5.8723800  17.0441100  17.0070810   6.5646240
   7.7343650  18.9839130   5.4750900   6.9218160  18.6096020   5.1346780
   8.2385290  18.2284210   5.7772090  12.2368630  15.6481580   6.7133970
  12.8398000  16.2201790   7.1882490  11.4961620  16.2121020   6.4907870
  15.3803230  16.0503140   1.9874250  15.5753860  16.9486590   2.2541680
  14.5933100  15.8190220   2.4807200   2.1764520  31.7316310   2.4266870
   1.6512140  32.1124340   1.7228830   2.1009100  32.3567080   3.1476580
   5.7592830  17.1339050   4.0795950   5.1295570  16.4326360   4.2466080
   5.2197970  17.8943180   3.8629110   8.6984780  33.7478280  16.7506560
   9.6252090  33.5122550  16.7942520   8.6835210  34.5750280  16.2692590
  16.9329840  33.2903850   3.7480810  17.1082030  32.6041590   3.1041730
  16.2351410  33.8150900   3.3557480   5.8848390  16.4123030  16.5148440
   5.6032660  16.9156630  15.7509260   6.2668090  15.6144780  16.1490570
  12.4863850  15.8276610  17.0928910  12.3729300  16.1471220  17.9880430
  13.3033590  16.2289120  16.7966190  15.2662340  32.9748140  16.5747600
  16.0587660  32.4797370  16.3673560  15.5595490  33.6538280  17.1823210
  11.3922000   5.0725590  81.3281100  11.3116050   4.1580200  81.0572810
  10.9786420   5.5692660  80.6220810   9.5240040   6.8504610  83.2090370
   8.7482140   6.3705050  83.4988940  10.1752970   6.1710260  83.0346530
   3.5405870   7.1624420  84.0866130   2.7090750   6.9073130  84.4862640
   4.1486850   7.2335190  84.8224050  13.5447470  11.2564800  81.9889500
  13.0829000  10.4852040  82.3176670  14.3573020  11.2830870  82.4941950
   3.5207130  11.1964510  84.2824150   3.8235170  10.3062250  84.1034370
   4.2650720  11.7534730  84.0546400   9.7710780  13.5422810  81.6093490
   9.1522220  13.9980310  81.0387930  10.6262560  13.6974270  81.2083190
   8.9649030   9.5261800  83.2160530   8.8957310   8.5851740  83.0549660
   9.7268890   9.6163210  83.7883100   5.9666940   3.6744180  83.2372080
   6.4745160   4.1725150  83.8777100   6.4980180   2.8979380  83.0611440
  18.0677870   1.8449370  86.9401430  17.3630040   2.2331080  86.4216540
  18.3335790   2.5399660  87.5422360  10.6374130   8.4262050  79.0025400
  10.0191400   8.8911500  78.4388120  11.1497380   9.1189530  79.4194910
   5.5005890   7.9537920  85.6809000   5.1675270   8.5806840  86.3230070
   5.6772570   8.4799800  84.9010670  14.0139800   1.7683000  83.1485340
  13.3095370   2.0567890  83.7288450  14.3751960   2.5783110  82.7884900
   4.7124990   9.9218720  87.4958180   5.3298990  10.5969800  87.2142630
   3.8518110  10.3306700  87.4045680  15.6302580  11.3858130  85.4112820
  14.9466100  12.0557240  85.4029490  16.1696870  11.5838780  84.6457680
  13.1661320  13.2302260  84.1258000  13.1788480  12.8264550  83.2580260
  12.6136540  14.0049550  84.0219430  14.4606740   9.9518480  79.2148170
  14.3503070   9.0092810  79.3397590  14.4574990  10.3134120  80.1010930
  12.5646760   8.1332100  85.4540610  12.9815550   7.9192210  84.6194070
  13.2886580   8.3904890  86.0249230  10.0027020   5.5783800  78.5710660
   9.0756300   5.5121180  78.7999130  10.1551840   6.5163930  78.4565900
   9.9896100   1.8500800  75.5677820   9.0499770   2.0114760  75.6530280
  10.3079360   2.5686480  75.0213810  16.5108860   6.5319320  85.5456850
  15.6827490   6.6012410  85.0706980  17.1059340   7.1173630  85.0772680
  14.0324310   7.1404100  79.0745910  13.4136730   6.8023650  78.4272210
  14.0148760   6.4963860  79.7825100  13.4750870   3.3188640  86.4911720
  13.0622050   4.1442350  86.7451710  12.7426820   2.7333680  86.2988080
   5.6083660   6.1048540  81.3530390   5.2040660   5.3925790  80.8576290
   5.6946780   5.7601780  82.2418430   6.0765360   9.7916100  83.5169600
   5.7793650   9.1861570  82.8377380   7.0265180   9.8293410  83.4058960
   4.3212280   2.8791750  85.1329430   4.8726870   2.9887090  84.3582680
   4.8355790   3.2529350  85.8484660  14.1650970  13.3647970  87.1792700
  13.6881530  14.1720160  86.9865310  13.4812760  12.7126300  87.3318910
  12.2089010   6.3790910  76.0818660  12.6482290   5.5413340  75.9356480
  12.9217430   7.0120310  76.1682800   3.9955010   6.4011110  88.7434770
   3.8562780   7.2733910  89.1122170   3.1136370   6.0583920  88.5982710
  10.3184390  11.3186980  80.0499900  10.7580300  12.0611310  79.6355290
  10.2571280  11.5613550  80.9738860   2.3088290   4.9993520  78.8537040
   2.1885890   5.7255610  78.2418310   1.9989180   4.2296430  78.3764950
  11.0100170  14.0200760  87.9778910  11.5244840  13.9308770  88.7801340
  10.1669250  14.3660460  88.2706820  12.9854570  14.3056100  77.4062910
  12.8255710  14.0159040  78.3044740  12.8201280  13.5296230  76.8708140
   5.4642950  14.0854630  79.1834530   5.2885430  13.1690170  78.9702330
   4.6098690  14.4441920  79.4232330  12.6880700  11.8143660  75.9660910
  11.9945860  11.8120950  75.3063190  13.4303560  11.3902980  75.5355080
  12.2530630  13.4406370  80.0409400  12.7087580  12.6595750  80.3548020
  12.5923150  14.1513190  80.5850580   4.5666170   3.4662160  79.9641960
   4.3407090   3.2499330  80.8688580   3.7858700   3.8990620  79.6187930
  11.7963930   3.4725530  78.5632610  11.1972820   4.1961330  78.3796230
  12.3443540   3.4102310  77.7809060  10.9883940   4.6994820  84.6886670
  10.2565060   5.2081630  85.0376770  10.5908280   3.8824800  84.3875450
   7.4881480   2.3761100  76.0845920   7.6094300   2.3347580  77.0331740
   7.1029990   3.2385250  75.9292650   6.5002980   4.6862240  75.4829220
   5.9319880   4.2380490  74.8565130   7.2091980   5.0455020  74.9494370
   7.7269300   5.4350800  84.8404570   8.0939430   4.9609370  85.5865910
   7.5374360   6.3092370  85.1812910   5.5168670   4.4759440  87.1588780
   5.2125740   5.3551420  87.3839140   6.4715130   4.5359230  87.1946220
   4.0450460   8.6820430  77.7555630   3.2712720   8.1418050  77.5954350
   4.7745090   8.1627040  77.4173390  14.8038440   7.6785790  83.5482020
  15.5237560   8.1741080  83.1578130  14.6020260   7.0003680  82.9035890
  12.9796770   3.4443400  75.9873570  13.8676390   3.7560630  75.8124910
  12.9501860   2.5715650  75.5954150   4.0887860   8.3500810  81.3934440
   4.6066530   7.5469070  81.3391330   3.6371880   8.2879950  82.2351270
   8.9757360   9.6167090  76.6661740   9.3173060  10.3609320  76.1705060
   8.1470070   9.9298210  77.0286570  15.2511040   4.7555240  75.4553430
  15.1674760   5.1869460  74.6049870  15.9705230   5.2153590  75.8880250
  16.3285180   7.2122760  88.5323400  15.6033370   7.8051540  88.3352790
  16.8560640   7.2046300  87.7336770  16.2798290  11.6097500  78.1835560
  15.6374450  10.9553120  78.4579280  15.8928950  12.0152590  77.4076230
  11.8584770   8.9382930  82.0307250  12.2108590   8.3411060  81.3708620
  10.9747100   8.6127160  82.2015500   7.9448050   9.6980620  79.4377660
   8.6319180  10.2449830  79.8185250   7.1580470  10.2421350  79.4727270
   7.2475260   6.7026650  79.0503020   7.7038040   7.5131900  79.2763210
   6.8963470   6.3849790  79.8821510   9.5507870  12.2132990  86.2795320
  10.1950090  12.4192370  86.9568740   9.9137310  11.4521390  85.8266170
  10.8239950  10.2165340  84.9972770  11.4662180   9.5158500  85.1104940
  11.3489300  10.9963780  84.8169660  14.6695670  10.5013960  74.7211910
  14.4433250   9.7844400  75.3136550  14.2791870  10.2526400  73.8833660
  12.5977570  11.0160240  88.2008830  12.9333810  11.6026930  88.8786750
  11.6777910  10.8852950  88.4306620  14.2511920   8.4185900  76.3826070
  13.9633620   8.8798590  77.1703950  15.0464090   7.9583670  76.6510290
   6.4680320  11.9112020  76.3130040   6.4590420  12.6441710  75.6974550
   5.5478680  11.6643600  76.4057000   9.4539920  11.9740260  74.9755230
   9.5551900  11.7704250  74.0457210   8.5541660  11.7198540  75.1803010
   6.9765810   2.5320620  78.9579130   6.2681960   3.0006960  79.3992740
   7.2610290   1.8742630  79.5924320   8.6021740   3.9517320  86.9571660
   9.1006990   4.4263140  87.6223510   8.7444690   3.0280840  87.1641690
   8.0958030  14.4926580  79.6702900   8.3499530  14.4547970  78.7482270
   7.1470510  14.3659910  79.6631150  14.1010610   5.4118460  81.2461410
  13.1600750   5.4268690  81.4209100  14.4154680   4.6254420  81.6921710
   4.0792250   7.0938060  74.8065370   4.8455520   6.9819420  75.3690800
   4.1566940   6.3976030  74.1542140   2.7739010   4.5263130  75.4898260
   2.8542600   3.5790640  75.6015660   3.6658760   4.8570010  75.5958920
  16.1036190  12.5827310  82.9215670  16.2283610  13.4058480  83.3939480
  16.9701750  12.3718040  82.5739820   3.5753720  14.6758520  82.5932800
   4.3116200  14.1273980  82.8641370   3.9594640  15.5414530  82.4538790
   6.6856030  13.8488830  74.4158370   7.4784640  14.1377660  73.9640160
   6.1660380  13.4181000  73.7370850  15.7386200  13.0758960  75.8395110
  15.4527710  12.6624100  75.0249290  15.5405750  14.0046670  75.7195630
   7.2033430   9.0692240  74.2800720   7.0984070   8.4544590  75.0062100
   7.0357650   8.5458130  73.4963730  10.4436160   8.1312270  74.8842710
   9.8946260   8.5781570  75.5285450  11.0655420   7.6261520  75.4080380
   6.1111280   7.0903190  76.7808010   6.5327700   6.9243060  77.6239400
   6.2362120   6.2803420  76.2863150   8.6238920   6.1140800  74.0285110
   9.1444580   5.3989820  73.6626260   9.2707320   6.7526670  74.3285620
   7.9331990   7.4889680  87.3216110   8.3520100   8.3322410  87.1492350
   7.0140620   7.6261720  87.0922890  12.6083790   5.7743050  87.2816460
  12.0819010   6.2985670  86.6781600  12.9515130   6.4070440  87.9126190
   5.0070180   3.1636420  73.7266170   4.8059240   2.3003780  74.0879510
   4.8362230   3.0769780  72.7887770   5.7839410  13.7942690  88.4373840
   5.2460500  14.5188750  88.1182540   6.0373370  13.3173030  87.6471180
   8.6401620  15.0293900  88.6960490   8.5660320  15.9329040  89.0032860
   7.7380460  14.7105800  88.6682560   9.1886950  14.1952410  76.3186850
  10.0837740  14.5337380  76.3405610   9.2204580  13.4731820  75.6911130
   2.8283110   9.5679460  74.5473850   3.2657980  10.1109130  75.2031430
   3.3130840   8.7426410  74.5570190   4.6390830  10.6877500  79.6596080
   4.3386370  10.5642470  80.5599990   4.5328320   9.8286090  79.2511810
  17.4082750  10.4673900  74.3622760  16.5775710  10.5350550  74.8329990
  17.5854580  11.3578020  74.0589620  16.8639210   7.2121380  76.8656960
  17.6258120   7.7818030  76.9716650  16.8793580   6.6448580  77.6365270
  17.8699180   8.0671480  81.7098890  18.2408010   7.2838800  81.3034860
  18.5101110   8.7560580  81.5316190  14.8532940   9.4508060  87.1229210
  14.0392780   9.8805220  87.3855000  15.2607140  10.0626470  86.5098260
  16.9158380   7.5055750  74.0229480  17.1907220   8.4134630  73.8948700
  16.7269120   7.4418280  74.9591470  16.8123720   5.4424740  79.0158910
  16.4367320   4.6752670  78.5840200  16.0826840   5.8247440  79.5033840
  16.2023340   4.5896260  88.6498430  15.9709430   4.3609010  87.7496380
  16.4627890   5.5095810  88.6043320  16.0874680   3.6682230  82.3166150
  16.6112160   3.1744880  81.6856320  16.6734100   3.8032590  83.0613720
  16.2664400   3.7522100  85.8385700  15.3167110   3.7185640  85.9530690
  16.4477410   4.6622210  85.6035470  15.5774650   2.9255580  78.2558560
  16.0733770   2.6926450  79.0407440  15.3790720   2.0867420  77.8396200
  14.9108990  14.2026660  80.6497480  15.5068060  13.8811230  79.9731900
  15.1687140  13.7298480  81.4410750   6.5177590  12.1904160  86.3997830
   6.2768950  12.4578720  85.5128350   7.4580230  12.3609890  86.4548690
  17.7781750  14.2098540  87.2008470  17.2840030  14.6067410  86.4835600
  17.1695040  13.5847750  87.5945750   2.6559590  13.5806820  87.9185890
   2.0619910  13.4491520  88.6575930   2.6483430  12.7444960  87.4527990
  15.4621200  14.8521960  84.4795210  15.0024170  15.6037770  84.1053230
  14.8333660  14.1328430  84.4210010   5.8916920  13.1610200  83.6543340
   6.4081940  12.5497560  83.1291600   6.5414300  13.6638980  84.1454350
   8.6312420  14.0518690  84.4812320   8.9190230  13.7972990  83.6045330
   9.1435640  13.4996050  85.0717890   2.1764520  12.9572820  77.5240830
   1.6512140  13.3380850  76.8202790   2.1009100  13.5823590  78.2450540
  16.9329840  14.5160360  78.8454770  17.1082030  13.8298100  78.2015690
  16.2351410  15.0407410  78.4531440   4.7757490  14.9055200  76.3990080
   5.5076310  14.6214480  75.8513970   5.0351160  14.6668480  77.2889460
   3.9372280  11.0219930  76.4036410   3.3081160  11.4905030  76.9522240
   4.0520110  10.1769150  76.8382600  11.3922000   5.0725590  62.5537610
  11.3116050   4.1580200  62.2829320  10.9786420   5.5692660  61.8477320
   9.5240040   6.8504610  64.4346880   8.7482140   6.3705050  64.7245450
  10.1752970   6.1710260  64.2603040   3.5405870   7.1624420  65.3122640
   2.7090750   6.9073130  65.7119150   4.1486850   7.2335190  66.0480560
  13.5447470  11.2564800  63.2146010  13.0829000  10.4852040  63.5433180
  14.3573020  11.2830870  63.7198460   3.5207130  11.1964510  65.5080660
   3.8235170  10.3062250  65.3290880   4.2650720  11.7534730  65.2802910
   9.7710780  13.5422810  62.8350000   9.1522220  13.9980310  62.2644440
  10.6262560  13.6974270  62.4339700   8.9649030   9.5261800  64.4417040
   8.8957310   8.5851740  64.2806170   9.7268890   9.6163210  65.0139610
   5.9666940   3.6744180  64.4628590   6.4745160   4.1725150  65.1033610
   6.4980180   2.8979380  64.2867950  18.0677870   1.8449370  68.1657940
  17.3630040   2.2331080  67.6473050  18.3335790   2.5399660  68.7678870
  10.6374130   8.4262050  60.2281910  10.0191400   8.8911500  59.6644630
  11.1497380   9.1189530  60.6451420   5.5005890   7.9537920  66.9065510
   5.1675270   8.5806840  67.5486580   5.6772570   8.4799800  66.1267180
  14.0139800   1.7683000  64.3741850  13.3095370   2.0567890  64.9544960
  14.3751960   2.5783110  64.0141410   4.7124990   9.9218720  68.7214690
   5.3298990  10.5969800  68.4399140   3.8518110  10.3306700  68.6302190
  15.6302580  11.3858130  66.6369330  14.9466100  12.0557240  66.6286000
  16.1696870  11.5838780  65.8714190  13.1661320  13.2302260  65.3514510
  13.1788480  12.8264550  64.4836770  12.6136540  14.0049550  65.2475940
  14.4606740   9.9518480  60.4404680  14.3503070   9.0092810  60.5654100
  14.4574990  10.3134120  61.3267440  12.5646760   8.1332100  66.6797120
  12.9815550   7.9192210  65.8450580  13.2886580   8.3904890  67.2505740
  10.0027020   5.5783800  59.7967170   9.0756300   5.5121180  60.0255640
  10.1551840   6.5163930  59.6822410   9.9896100   1.8500800  56.7934330
   9.0499770   2.0114760  56.8786790  10.3079360   2.5686480  56.2470320
  16.5108860   6.5319320  66.7713360  15.6827490   6.6012410  66.2963490
  17.1059340   7.1173630  66.3029190  14.0324310   7.1404100  60.3002420
  13.4136730   6.8023650  59.6528720  14.0148760   6.4963860  61.0081610
  13.4750870   3.3188640  67.7168230  13.0622050   4.1442350  67.9708220
  12.7426820   2.7333680  67.5244590   5.6083660   6.1048540  62.5786900
   5.2040660   5.3925790  62.0832800   5.6946780   5.7601780  63.4674940
   6.0765360   9.7916100  64.7426110   5.7793650   9.1861570  64.0633890
   7.0265180   9.8293410  64.6315470   4.3212280   2.8791750  66.3585940
   4.8726870   2.9887090  65.5839190   4.8355790   3.2529350  67.0741170
  14.1650970  13.3647970  68.4049210  13.6881530  14.1720160  68.2121820
  13.4812760  12.7126300  68.5575420   5.1683790   9.5297790  71.3933910
   4.2712320   9.7537760  71.6407310   5.1936660   9.6532730  70.4445310
  12.2089010   6.3790910  57.3075170  12.6482290   5.5413340  57.1612990
  12.9217430   7.0120310  57.3939310   3.9955010   6.4011110  69.9691280
   3.8562780   7.2733910  70.3378680   3.1136370   6.0583920  69.8239220
  10.3184390  11.3186980  61.2756410  10.7580300  12.0611310  60.8611800
  10.2571280  11.5613550  62.1995370   5.7935360  12.3432810  72.1776430
   5.7650790  12.7475760  71.3104860   5.6300330  11.4143170  72.0148030
   2.3088290   4.9993520  60.0793550   2.1885890   5.7255610  59.4674820
   1.9989180   4.2296430  59.6021460  17.7450180  13.1259910  73.4740600
  18.2209900  13.6042800  74.1529680  18.3657340  13.0577400  72.7486100
  17.1483430  10.3172760  70.6340610  17.2746490  10.0784640  69.7157790
  17.1904810   9.4857300  71.1062690  11.0100170  14.0200760  69.2035420
  11.5244840  13.9308770  70.0057850  10.1669250  14.3660460  69.4963330
  12.9854570  14.3056100  58.6319420  12.8255710  14.0159040  59.5301250
  12.8201280  13.5296230  58.0964650   5.4642950  14.0854630  60.4091040
   5.2885430  13.1690170  60.1958840   4.6098690  14.4441920  60.6488840
  12.6880700  11.8143660  57.1917420  11.9945860  11.8120950  56.5319700
  13.4303560  11.3902980  56.7611590  12.2530630  13.4406370  61.2665910
  12.7087580  12.6595750  61.5804530  12.5923150  14.1513190  61.8107090
  14.0626270   2.4306060  70.1949200  13.2119860   2.1311810  70.5158270
  13.9028060   2.6748070  69.2833020  11.1575980   3.9307810  72.2947990
  11.4829390   3.0971560  71.9550220  11.9456310   4.4536330  72.4426320
   4.5666170   3.4662160  61.1898470   4.3407090   3.2499330  62.0945090
   3.7858700   3.8990620  60.8444440  11.7963930   3.4725530  59.7889120
  11.1972820   4.1961330  59.6052740  12.3443540   3.4102310  59.0065570
   7.0065380   4.3647740  71.8558740   6.9108980   3.4242470  71.7059140
   7.8497360   4.5862810  71.4606810  10.9883940   4.6994820  65.9143180
  10.2565060   5.2081630  66.2633280  10.5908280   3.8824800  65.6131960
   7.4881480   2.3761100  57.3102430   7.6094300   2.3347580  58.2588250
   7.1029990   3.2385250  57.1549160   6.5002980   4.6862240  56.7085730
   5.9319880   4.2380490  56.0821640   7.2091980   5.0455020  56.1750880
   7.7269300   5.4350800  66.0661080   8.0939430   4.9609370  66.8122420
   7.5374360   6.3092370  66.4069420   5.5168670   4.4759440  68.3845290
   5.2125740   5.3551420  68.6095650   6.4715130   4.5359230  68.4202730
   4.0450460   8.6820430  58.9812140   3.2712720   8.1418050  58.8210860
   4.7745090   8.1627040  58.6429900  14.8038440   7.6785790  64.7738530
  15.5237560   8.1741080  64.3834640  14.6020260   7.0003680  64.1292400
  10.1857240   7.7494850  70.6607530  10.1194550   6.8290520  70.4065120
   9.5562380   7.8470290  71.3752170  12.9796770   3.4443400  57.2130080
  13.8676390   3.7560630  57.0381420  12.9501860   2.5715650  56.8210660
   4.0887860   8.3500810  62.6190950   4.6066530   7.5469070  62.5647840
   3.6371880   8.2879950  63.4607780   8.9757360   9.6167090  57.8918250
   9.3173060  10.3609320  57.3961570   8.1470070   9.9298210  58.2543080
   4.7745520   5.7746420  72.4156200   4.4745660   5.9203600  71.5184020
   5.5456760   5.2151710  72.3229590  10.1173970  10.5715420  70.4111330
  10.1318510   9.6396380  70.1930240   9.4099070  10.6575180  71.0501100
  15.2511040   4.7555240  56.6809940  15.1674760   5.1869460  55.8306380
  15.9705230   5.2153590  57.1136760  16.3285180   7.2122760  69.7579910
  15.6033370   7.8051540  69.5609300  16.8560640   7.2046300  68.9593280
  16.2798290  11.6097500  59.4092070  15.6374450  10.9553120  59.6835790
  15.8928950  12.0152590  58.6332740  11.8584770   8.9382930  63.2563760
  12.2108590   8.3411060  62.5965130  10.9747100   8.6127160  63.4272010
   7.9448050   9.6980620  60.6634170   8.6319180  10.2449830  61.0441760
   7.1580470  10.2421350  60.6983780   7.2475260   6.7026650  60.2759530
   7.7038040   7.5131900  60.5019720   6.8963470   6.3849790  61.1078020
   9.5507870  12.2132990  67.5051830  10.1950090  12.4192370  68.1825250
   9.9137310  11.4521390  67.0522680  10.8239950  10.2165340  66.2229280
  11.4662180   9.5158500  66.3361450  11.3489300  10.9963780  66.0426170
  14.6695670  10.5013960  55.9468420  14.4433250   9.7844400  56.5393060
  14.2791870  10.2526400  55.1090170  12.5977570  11.0160240  69.4265340
  12.9333810  11.6026930  70.1043260  11.6777910  10.8852950  69.6563130
  14.2511920   8.4185900  57.6082580  13.9633620   8.8798590  58.3960460
  15.0464090   7.9583670  57.8766800   8.4266150  11.0651570  72.5953400
   8.1063020  10.3460810  73.1399090   7.7524510  11.7406640  72.6689460
   6.4680320  11.9112020  57.5386550   6.4590420  12.6441710  56.9231060
   5.5478680  11.6643600  57.6313510   9.4539920  11.9740260  56.2011740
   9.5551900  11.7704250  55.2713720   8.5541660  11.7198540  56.4059520
   6.9765810   2.5320620  60.1835640   6.2681960   3.0006960  60.6249250
   7.2610290   1.8742630  60.8180830   8.6021740   3.9517320  68.1828170
   9.1006990   4.4263140  68.8480020   8.7444690   3.0280840  68.3898200
   8.0958030  14.4926580  60.8959410   8.3499530  14.4547970  59.9738780
   7.1470510  14.3659910  60.8887660  14.1010610   5.4118460  62.4717920
  13.1600750   5.4268690  62.6465610  14.4154680   4.6254420  62.9178220
   4.0792250   7.0938060  56.0321880   4.8455520   6.9819420  56.5947310
   4.1566940   6.3976030  55.3798650   2.7739010   4.5263130  56.7154770
   2.8542600   3.5790640  56.8272170   3.6658760   4.8570010  56.8215430
  16.1036190  12.5827310  64.1472180  16.2283610  13.4058480  64.6195990
  16.9701750  12.3718040  63.7996330   3.5753720  14.6758520  63.8189310
   4.3116200  14.1273980  64.0897880   3.9594640  15.5414530  63.6795300
   2.5812000  13.8604590  73.0074890   3.3824730  14.1816640  73.4210290
   2.0663820  13.5000170  73.7294800   6.6856030  13.8488830  55.6414880
   7.4784640  14.1377660  55.1896670   6.1660380  13.4181000  54.9627360
  11.4176630   9.9684460  72.9550300  10.8114790   9.9916060  72.2146050
  11.1130740   9.2367500  73.4917550  12.8477000  13.6964750  71.5659710
  13.7998750  13.6122770  71.5159950  12.7005220  14.3606460  72.2393500
  15.7386200  13.0758960  57.0651620  15.4527710  12.6624100  56.2505800
  15.5405750  14.0046670  56.9452140   7.2033430   9.0692240  55.5057230
   7.0984070   8.4544590  56.2318610   7.0357650   8.5458130  54.7220240
   7.3547750   7.7549040  71.4846460   6.5893420   8.3234040  71.4001130
   7.5363710   7.4625250  70.5914690  10.4436160   8.1312270  56.1099220
   9.8946260   8.5781570  56.7541960  11.0655420   7.6261520  56.6336890
  14.4971100   9.4854370  72.0421480  15.2380570   9.8230130  71.5388940
  13.7343780   9.6546430  71.4891250   2.3332890   4.4907640  72.8461010
   2.3738230   4.1921510  73.7546240   3.1878390   4.8915250  72.6868530
   6.1111280   7.0903190  58.0064520   6.5327700   6.9243060  58.8495910
   6.2362120   6.2803420  57.5119660   4.2738700   3.0699740  70.8135500
   3.7435160   2.5790690  70.1858840   4.9426770   3.4983940  70.2793430
   8.6238920   6.1140800  55.2541620   9.1444580   5.3989820  54.8882770
   9.2707320   6.7526670  55.5542130  13.1716760   7.5369200  70.5776690
  13.5857780   7.6914280  71.4267110  12.2367760   7.6624420  70.7402470
  13.6438930   4.8765360  72.5815840  14.2259700   4.1217680  72.4936320
  13.8200700   5.4072800  71.8047320   7.9331990   7.4889680  68.5472620
   8.3520100   8.3322410  68.3748860   7.0140620   7.6261720  68.3179400
  10.2695890   5.2205860  69.9310460  10.3892100   4.6247000  70.6705300
  11.1289890   5.2575550  69.5111760  12.6083790   5.7743050  68.5072970
  12.0819010   6.2985670  67.9038110  12.9515130   6.4070440  69.1382700
   5.0070180   3.1636420  54.9522680   4.8059240   2.3003780  55.3136020
   4.8362230   3.0769780  54.0144280   5.7839410  13.7942690  69.6630350
   5.2460500  14.5188750  69.3439050   6.0373370  13.3173030  68.8727690
   8.6401620  15.0293900  69.9217000   8.5660320  15.9329040  70.2289370
   7.7380460  14.7105800  69.8939070   9.1886950  14.1952410  57.5443360
  10.0837740  14.5337380  57.5662120   9.2204580  13.4731820  56.9167640
   2.8283110   9.5679460  55.7730360   3.2657980  10.1109130  56.4287940
   3.3130840   8.7426410  55.7826700   4.6390830  10.6877500  60.8852590
   4.3386370  10.5642470  61.7856500   4.5328320   9.8286090  60.4768320
  16.1681300  12.7256080  70.2509560  15.5683290  12.7848640  69.5073480
  16.2975200  11.7861060  70.3806410  17.4082750  10.4673900  55.5879270
  16.5775710  10.5350550  56.0586500  17.5854580  11.3578020  55.2846130
  16.8639210   7.2121380  58.0913470  17.6258120   7.7818030  58.1973160
  16.8793580   6.6448580  58.8621780  17.8699180   8.0671480  62.9355400
  18.2408010   7.2838800  62.5291370  18.5101110   8.7560580  62.7572700
  14.8532940   9.4508060  68.3485720  14.0392780   9.8805220  68.6111510
  15.2607140  10.0626470  67.7354770  16.9158380   7.5055750  55.2485990
  17.1907220   8.4134630  55.1205210  16.7269120   7.4418280  56.1847980
  16.8123720   5.4424740  60.2415420  16.4367320   4.6752670  59.8096710
  16.0826840   5.8247440  60.7290350  16.2023340   4.5896260  69.8754940
  15.9709430   4.3609010  68.9752890  16.4627890   5.5095810  69.8299830
  16.0874680   3.6682230  63.5422660  16.6112160   3.1744880  62.9112830
  16.6734100   3.8032590  64.2870230  16.2664400   3.7522100  67.0642210
  15.3167110   3.7185640  67.1787200  16.4477410   4.6622210  66.8291980
  15.5774650   2.9255580  59.4815070  16.0733770   2.6926450  60.2663950
  15.3790720   2.0867420  59.0652710  14.9108990  14.2026660  61.8753990
  15.5068060  13.8811230  61.1988410  15.1687140  13.7298480  62.6667260
   2.8171560  10.6344570  72.0244620   2.7741190  10.2637480  72.9059080
   2.9482570  11.5722140  72.1646440   6.5177590  12.1904160  67.6254340
   6.2768950  12.4578720  66.7384860   7.4580230  12.3609890  67.6805200
  17.7781750  14.2098540  68.4264980  17.2840030  14.6067410  67.7092110
  17.1695040  13.5847750  68.8202260   2.6559590  13.5806820  69.1442400
   2.0619910  13.4491520  69.8832440   2.6483430  12.7444960  68.6784500
  15.4621200  14.8521960  65.7051720  15.0024170  15.6037770  65.3309740
  14.8333660  14.1328430  65.6466520   5.8916920  13.1610200  64.8799850
   6.4081940  12.5497560  64.3548110   6.5414300  13.6638980  65.3710860
   8.6312420  14.0518690  65.7068830   8.9190230  13.7972990  64.8301840
   9.1435640  13.4996050  66.2974400   2.1764520  12.9572820  58.7497340
   1.6512140  13.3380850  58.0459300   2.1009100  13.5823590  59.4707050
   8.6984780  14.9734790  73.0737030   9.6252090  14.7379060  73.1172990
   8.6835210  15.8006790  72.5923060  16.9329840  14.5160360  60.0711280
  17.1082030  13.8298100  59.4272200  16.2351410  15.0407410  59.6787950
   4.7757490  14.9055200  57.6246590   5.5076310  14.6214480  57.0770480
   5.0351160  14.6668480  58.5145970   3.9372280  11.0219930  57.6292920
   3.3081160  11.4905030  58.1778750   4.0520110  10.1769150  58.0639110
  15.2662340  14.2004650  72.8978070  16.0587660  13.7053880  72.6904030
  15.5595490  14.8794790  73.5053680  11.3922000   5.0725590  43.7794120
  11.3116050   4.1580200  43.5085830  10.9786420   5.5692660  43.0733830
   9.5240040   6.8504610  45.6603390   8.7482140   6.3705050  45.9501960
  10.1752970   6.1710260  45.4859550   3.5405870   7.1624420  46.5379150
   2.7090750   6.9073130  46.9375660   4.1486850   7.2335190  47.2737070
  13.5447470  11.2564800  44.4402520  13.0829000  10.4852040  44.7689690
  14.3573020  11.2830870  44.9454970   3.5207130  11.1964510  46.7337170
   3.8235170  10.3062250  46.5547390   4.2650720  11.7534730  46.5059420
   9.7710780  13.5422810  44.0606510   9.1522220  13.9980310  43.4900950
  10.6262560  13.6974270  43.6596210   8.9649030   9.5261800  45.6673550
   8.8957310   8.5851740  45.5062680   9.7268890   9.6163210  46.2396120
   5.9666940   3.6744180  45.6885100   6.4745160   4.1725150  46.3290120
   6.4980180   2.8979380  45.5124460  18.0677870   1.8449370  49.3914450
  17.3630040   2.2331080  48.8729560  18.3335790   2.5399660  49.9935380
  10.6374130   8.4262050  41.4538420  10.0191400   8.8911500  40.8901140
  11.1497380   9.1189530  41.8707930   5.5005890   7.9537920  48.1322020
   5.1675270   8.5806840  48.7743090   5.6772570   8.4799800  47.3523690
  14.0139800   1.7683000  45.5998360  13.3095370   2.0567890  46.1801470
  14.3751960   2.5783110  45.2397920   4.7124990   9.9218720  49.9471200
   5.3298990  10.5969800  49.6655650   3.8518110  10.3306700  49.8558700
  15.6302580  11.3858130  47.8625840  14.9466100  12.0557240  47.8542510
  16.1696870  11.5838780  47.0970700  13.1661320  13.2302260  46.5771020
  13.1788480  12.8264550  45.7093280  12.6136540  14.0049550  46.4732450
  14.4606740   9.9518480  41.6661190  14.3503070   9.0092810  41.7910610
  14.4574990  10.3134120  42.5523950  12.5646760   8.1332100  47.9053630
  12.9815550   7.9192210  47.0707090  13.2886580   8.3904890  48.4762250
  10.0027020   5.5783800  41.0223680   9.0756300   5.5121180  41.2512150
  10.1551840   6.5163930  40.9078920   9.9896100   1.8500800  38.0190840
   9.0499770   2.0114760  38.1043300  10.3079360   2.5686480  37.4726830
  16.5108860   6.5319320  47.9969870  15.6827490   6.6012410  47.5220000
  17.1059340   7.1173630  47.5285700  14.0324310   7.1404100  41.5258930
  13.4136730   6.8023650  40.8785230  14.0148760   6.4963860  42.2338120
  13.4750870   3.3188640  48.9424740  13.0622050   4.1442350  49.1964730
  12.7426820   2.7333680  48.7501100   5.6083660   6.1048540  43.8043410
   5.2040660   5.3925790  43.3089310   5.6946780   5.7601780  44.6931450
   6.0765360   9.7916100  45.9682620   5.7793650   9.1861570  45.2890400
   7.0265180   9.8293410  45.8571980   4.3212280   2.8791750  47.5842450
   4.8726870   2.9887090  46.8095700   4.8355790   3.2529350  48.2997680
  14.1650970  13.3647970  49.6305720  13.6881530  14.1720160  49.4378330
  13.4812760  12.7126300  49.7831930   5.1683790   9.5297790  52.6190420
   4.2712320   9.7537760  52.8663820   5.1936660   9.6532730  51.6701820
  12.2089010   6.3790910  38.5331680  12.6482290   5.5413340  38.3869500
  12.9217430   7.0120310  38.6195820   3.9955010   6.4011110  51.1947790
   3.8562780   7.2733910  51.5635190   3.1136370   6.0583920  51.0495730
  10.3184390  11.3186980  42.5012920  10.7580300  12.0611310  42.0868310
  10.2571280  11.5613550  43.4251880   5.7935360  12.3432810  53.4032940
   5.7650790  12.7475760  52.5361370   5.6300330  11.4143170  53.2404540
   2.3088290   4.9993520  41.3050060   2.1885890   5.7255610  40.6931330
   1.9989180   4.2296430  40.8277970  17.7450180  13.1259910  54.6997110
  18.2209900  13.6042800  55.3786190  18.3657340  13.0577400  53.9742610
  17.1483430  10.3172760  51.8597120  17.2746490  10.0784640  50.9414300
  17.1904810   9.4857300  52.3319200  11.0100170  14.0200760  50.4291930
  11.5244840  13.9308770  51.2314360  10.1669250  14.3660460  50.7219840
  12.9854570  14.3056100  39.8575930  12.8255710  14.0159040  40.7557760
  12.8201280  13.5296230  39.3221160   5.4642950  14.0854630  41.6347550
   5.2885430  13.1690170  41.4215350   4.6098690  14.4441920  41.8745350
  12.6880700  11.8143660  38.4173930  11.9945860  11.8120950  37.7576210
  13.4303560  11.3902980  37.9868100  12.2530630  13.4406370  42.4922420
  12.7087580  12.6595750  42.8061040  12.5923150  14.1513190  43.0363600
  14.0626270   2.4306060  51.4205710  13.2119860   2.1311810  51.7414780
  13.9028060   2.6748070  50.5089530  11.1575980   3.9307810  53.5204500
  11.4829390   3.0971560  53.1806730  11.9456310   4.4536330  53.6682830
   4.5666170   3.4662160  42.4154980   4.3407090   3.2499330  43.3201600
   3.7858700   3.8990620  42.0700950  11.7963930   3.4725530  41.0145630
  11.1972820   4.1961330  40.8309250  12.3443540   3.4102310  40.2322080
   7.0065380   4.3647740  53.0815250   6.9108980   3.4242470  52.9315650
   7.8497360   4.5862810  52.6863320  10.9883940   4.6994820  47.1399690
  10.2565060   5.2081630  47.4889790  10.5908280   3.8824800  46.8388470
   7.4881480   2.3761100  38.5358940   7.6094300   2.3347580  39.4844760
   7.1029990   3.2385250  38.3805670   6.5002980   4.6862240  37.9342240
   5.9319880   4.2380490  37.3078150   7.2091980   5.0455020  37.4007390
   7.7269300   5.4350800  47.2917590   8.0939430   4.9609370  48.0378930
   7.5374360   6.3092370  47.6325930   5.5168670   4.4759440  49.6101800
   5.2125740   5.3551420  49.8352160   6.4715130   4.5359230  49.6459240
   4.0450460   8.6820430  40.2068650   3.2712720   8.1418050  40.0467370
   4.7745090   8.1627040  39.8686410  14.8038440   7.6785790  45.9995040
  15.5237560   8.1741080  45.6091150  14.6020260   7.0003680  45.3548910
  10.1857240   7.7494850  51.8864040  10.1194550   6.8290520  51.6321630
   9.5562380   7.8470290  52.6008680  12.9796770   3.4443400  38.4386590
  13.8676390   3.7560630  38.2637930  12.9501860   2.5715650  38.0467170
   4.0887860   8.3500810  43.8447460   4.6066530   7.5469070  43.7904350
   3.6371880   8.2879950  44.6864290   8.9757360   9.6167090  39.1174760
   9.3173060  10.3609320  38.6218080   8.1470070   9.9298210  39.4799590
   4.7745520   5.7746420  53.6412710   4.4745660   5.9203600  52.7440530
   5.5456760   5.2151710  53.5486100  10.1173970  10.5715420  51.6367840
  10.1318510   9.6396380  51.4186750   9.4099070  10.6575180  52.2757610
  15.2511040   4.7555240  37.9066450  15.1674760   5.1869460  37.0562890
  15.9705230   5.2153590  38.3393270  16.3285180   7.2122760  50.9836420
  15.6033370   7.8051540  50.7865810  16.8560640   7.2046300  50.1849790
  16.2798290  11.6097500  40.6348580  15.6374450  10.9553120  40.9092300
  15.8928950  12.0152590  39.8589250  11.8584770   8.9382930  44.4820270
  12.2108590   8.3411060  43.8221640  10.9747100   8.6127160  44.6528520
   7.9448050   9.6980620  41.8890680   8.6319180  10.2449830  42.2698270
   7.1580470  10.2421350  41.9240290   7.2475260   6.7026650  41.5016040
   7.7038040   7.5131900  41.7276230   6.8963470   6.3849790  42.3334530
   9.5507870  12.2132990  48.7308340  10.1950090  12.4192370  49.4081760
   9.9137310  11.4521390  48.2779190  10.8239950  10.2165340  47.4485790
  11.4662180   9.5158500  47.5617960  11.3489300  10.9963780  47.2682680
  14.6695670  10.5013960  37.1724930  14.4433250   9.7844400  37.7649570
  14.2791870  10.2526400  36.3346680  12.5977570  11.0160240  50.6521850
  12.9333810  11.6026930  51.3299770  11.6777910  10.8852950  50.8819640
  14.2511920   8.4185900  38.8339090  13.9633620   8.8798590  39.6216970
  15.0464090   7.9583670  39.1023310   8.4266150  11.0651570  53.8209910
   8.1063020  10.3460810  54.3655600   7.7524510  11.7406640  53.8945970
   6.4680320  11.9112020  38.7643060   6.4590420  12.6441710  38.1487570
   5.5478680  11.6643600  38.8570020   9.4539920  11.9740260  37.4268250
   9.5551900  11.7704250  36.4970230   8.5541660  11.7198540  37.6316030
   6.9765810   2.5320620  41.4092150   6.2681960   3.0006960  41.8505760
   7.2610290   1.8742630  42.0437340   8.6021740   3.9517320  49.4084680
   9.1006990   4.4263140  50.0736530   8.7444690   3.0280840  49.6154710
   8.0958030  14.4926580  42.1215920   8.3499530  14.4547970  41.1995290
   7.1470510  14.3659910  42.1144170  14.1010610   5.4118460  43.6974430
  13.1600750   5.4268690  43.8722120  14.4154680   4.6254420  44.1434730
   4.0792250   7.0938060  37.2578390   4.8455520   6.9819420  37.8203820
   4.1566940   6.3976030  36.6055160   2.7739010   4.5263130  37.9411280
   2.8542600   3.5790640  38.0528680   3.6658760   4.8570010  38.0471940
  16.1036190  12.5827310  45.3728690  16.2283610  13.4058480  45.8452500
  16.9701750  12.3718040  45.0252840   3.5753720  14.6758520  45.0445820
   4.3116200  14.1273980  45.3154390   3.9594640  15.5414530  44.9051810
   2.5812000  13.8604590  54.2331400   3.3824730  14.1816640  54.6466800
   2.0663820  13.5000170  54.9551310   6.6856030  13.8488830  36.8671390
   7.4784640  14.1377660  36.4153180   6.1660380  13.4181000  36.1883870
  11.4176630   9.9684460  54.1806810  10.8114790   9.9916060  53.4402560
  11.1130740   9.2367500  54.7174060  12.8477000  13.6964750  52.7916220
  13.7998750  13.6122770  52.7416460  12.7005220  14.3606460  53.4650010
  15.7386200  13.0758960  38.2908130  15.4527710  12.6624100  37.4762310
  15.5405750  14.0046670  38.1708650   7.2033430   9.0692240  36.7313740
   7.0984070   8.4544590  37.4575120   7.0357650   8.5458130  35.9476750
   7.3547750   7.7549040  52.7102970   6.5893420   8.3234040  52.6257640
   7.5363710   7.4625250  51.8171200  10.4436160   8.1312270  37.3355730
   9.8946260   8.5781570  37.9798470  11.0655420   7.6261520  37.8593400
  14.4971100   9.4854370  53.2677990  15.2380570   9.8230130  52.7645450
  13.7343780   9.6546430  52.7147760   2.3332890   4.4907640  54.0717520
   2.3738230   4.1921510  54.9802750   3.1878390   4.8915250  53.9125040
   6.1111280   7.0903190  39.2321030   6.5327700   6.9243060  40.0752420
   6.2362120   6.2803420  38.7376170   4.2738700   3.0699740  52.0392010
   3.7435160   2.5790690  51.4115350   4.9426770   3.4983940  51.5049940
   8.6238920   6.1140800  36.4798130   9.1444580   5.3989820  36.1139280
   9.2707320   6.7526670  36.7798640  13.1716760   7.5369200  51.8033200
  13.5857780   7.6914280  52.6523620  12.2367760   7.6624420  51.9658980
  13.6438930   4.8765360  53.8072350  14.2259700   4.1217680  53.7192830
  13.8200700   5.4072800  53.0303830   7.9331990   7.4889680  49.7729130
   8.3520100   8.3322410  49.6005370   7.0140620   7.6261720  49.5435910
  10.2695890   5.2205860  51.1566970  10.3892100   4.6247000  51.8961810
  11.1289890   5.2575550  50.7368270  12.6083790   5.7743050  49.7329480
  12.0819010   6.2985670  49.1294620  12.9515130   6.4070440  50.3639210
   5.0070180   3.1636420  36.1779190   4.8059240   2.3003780  36.5392530
   4.8362230   3.0769780  35.2400790   5.7839410  13.7942690  50.8886860
   5.2460500  14.5188750  50.5695560   6.0373370  13.3173030  50.0984200
   8.6401620  15.0293900  51.1473510   8.5660320  15.9329040  51.4545880
   7.7380460  14.7105800  51.1195580   9.1886950  14.1952410  38.7699870
  10.0837740  14.5337380  38.7918630   9.2204580  13.4731820  38.1424150
   2.8283110   9.5679460  36.9986870   3.2657980  10.1109130  37.6544450
   3.3130840   8.7426410  37.0083210   4.6390830  10.6877500  42.1109100
   4.3386370  10.5642470  43.0113010   4.5328320   9.8286090  41.7024830
  16.1681300  12.7256080  51.4766070  15.5683290  12.7848640  50.7329990
  16.2975200  11.7861060  51.6062920  17.4082750  10.4673900  36.8135780
  16.5775710  10.5350550  37.2843010  17.5854580  11.3578020  36.5102640
  16.8639210   7.2121380  39.3169980  17.6258120   7.7818030  39.4229670
  16.8793580   6.6448580  40.0878290  17.8699180   8.0671480  44.1611910
  18.2408010   7.2838800  43.7547880  18.5101110   8.7560580  43.9829210
  14.8532940   9.4508060  49.5742230  14.0392780   9.8805220  49.8368020
  15.2607140  10.0626470  48.9611280  16.9158380   7.5055750  36.4742500
  17.1907220   8.4134630  36.3461720  16.7269120   7.4418280  37.4104490
  16.8123720   5.4424740  41.4671930  16.4367320   4.6752670  41.0353220
  16.0826840   5.8247440  41.9546860  16.2023340   4.5896260  51.1011450
  15.9709430   4.3609010  50.2009400  16.4627890   5.5095810  51.0556340
  16.0874680   3.6682230  44.7679170  16.6112160   3.1744880  44.1369340
  16.6734100   3.8032590  45.5126740  16.2664400   3.7522100  48.2898720
  15.3167110   3.7185640  48.4043710  16.4477410   4.6622210  48.0548490
  15.5774650   2.9255580  40.7071580  16.0733770   2.6926450  41.4920460
  15.3790720   2.0867420  40.2909220  14.9108990  14.2026660  43.1010500
  15.5068060  13.8811230  42.4244920  15.1687140  13.7298480  43.8923770
   2.8171560  10.6344570  53.2501130   2.7741190  10.2637480  54.1315590
   2.9482570  11.5722140  53.3902950   6.5177590  12.1904160  48.8510850
   6.2768950  12.4578720  47.9641370   7.4580230  12.3609890  48.9061710
  17.7781750  14.2098540  49.6521490  17.2840030  14.6067410  48.9348620
  17.1695040  13.5847750  50.0458770   2.6559590  13.5806820  50.3698910
   2.0619910  13.4491520  51.1088950   2.6483430  12.7444960  49.9041010
  15.4621200  14.8521960  46.9308230  15.0024170  15.6037770  46.5566250
  14.8333660  14.1328430  46.8723030   5.8916920  13.1610200  46.1056360
   6.4081940  12.5497560  45.5804620   6.5414300  13.6638980  46.5967370
   8.6312420  14.0518690  46.9325340   8.9190230  13.7972990  46.0558350
   9.1435640  13.4996050  47.5230910   2.1764520  12.9572820  39.9753850
   1.6512140  13.3380850  39.2715810   2.1009100  13.5823590  40.6963560
   8.6984780  14.9734790  54.2993540   9.6252090  14.7379060  54.3429500
   8.6835210  15.8006790  53.8179570  16.9329840  14.5160360  41.2967790
  17.1082030  13.8298100  40.6528710  16.2351410  15.0407410  40.9044460
   4.7757490  14.9055200  38.8503100   5.5076310  14.6214480  38.3026990
   5.0351160  14.6668480  39.7402480   3.9372280  11.0219930  38.8549430
   3.3081160  11.4905030  39.4035260   4.0520110  10.1769150  39.2895620
  15.2662340  14.2004650  54.1234580  16.0587660  13.7053880  53.9160540
  15.5595490  14.8794790  54.7310190  11.3922000   5.0725590  25.0050630
  11.3116050   4.1580200  24.7342340  10.9786420   5.5692660  24.2990340
   9.5240040   6.8504610  26.8859900   8.7482140   6.3705050  27.1758470
  10.1752970   6.1710260  26.7116060   3.5405870   7.1624420  27.7635660
   2.7090750   6.9073130  28.1632170   4.1486850   7.2335190  28.4993580
  13.5447470  11.2564800  25.6659030  13.0829000  10.4852040  25.9946200
  14.3573020  11.2830870  26.1711480   3.5207130  11.1964510  27.9593680
   3.8235170  10.3062250  27.7803900   4.2650720  11.7534730  27.7315930
   9.7710780  13.5422810  25.2863020   9.1522220  13.9980310  24.7157460
  10.6262560  13.6974270  24.8852720   8.9649030   9.5261800  26.8930060
   8.8957310   8.5851740  26.7319190   9.7268890   9.6163210  27.4652630
   5.9666940   3.6744180  26.9141610   6.4745160   4.1725150  27.5546630
   6.4980180   2.8979380  26.7380970  18.0677870   1.8449370  30.6170960
  17.3630040   2.2331080  30.0986070  18.3335790   2.5399660  31.2191890
  10.6374130   8.4262050  22.6794930  10.0191400   8.8911500  22.1157650
  11.1497380   9.1189530  23.0964440   5.5005890   7.9537920  29.3578530
   5.1675270   8.5806840  29.9999600   5.6772570   8.4799800  28.5780200
  14.0139800   1.7683000  26.8254870  13.3095370   2.0567890  27.4057980
  14.3751960   2.5783110  26.4654430   4.7124990   9.9218720  31.1727710
   5.3298990  10.5969800  30.8912160   3.8518110  10.3306700  31.0815210
  15.6302580  11.3858130  29.0882350  14.9466100  12.0557240  29.0799020
  16.1696870  11.5838780  28.3227210  13.1661320  13.2302260  27.8027530
  13.1788480  12.8264550  26.9349790  12.6136540  14.0049550  27.6988960
  14.4606740   9.9518480  22.8917700  14.3503070   9.0092810  23.0167120
  14.4574990  10.3134120  23.7780460  12.5646760   8.1332100  29.1310140
  12.9815550   7.9192210  28.2963600  13.2886580   8.3904890  29.7018760
  10.0027020   5.5783800  22.2480190   9.0756300   5.5121180  22.4768660
  10.1551840   6.5163930  22.1335430   9.9896100   1.8500800  19.2447350
   9.0499770   2.0114760  19.3299810  10.3079360   2.5686480  18.6983340
  16.5108860   6.5319320  29.2226380  15.6827490   6.6012410  28.7476510
  17.1059340   7.1173630  28.7542210  14.0324310   7.1404100  22.7515440
  13.4136730   6.8023650  22.1041740  14.0148760   6.4963860  23.4594630
  13.4750870   3.3188640  30.1681250  13.0622050   4.1442350  30.4221240
  12.7426820   2.7333680  29.9757610   5.6083660   6.1048540  25.0299920
   5.2040660   5.3925790  24.5345820   5.6946780   5.7601780  25.9187960
   6.0765360   9.7916100  27.1939130   5.7793650   9.1861570  26.5146910
   7.0265180   9.8293410  27.0828490   4.3212280   2.8791750  28.8098960
   4.8726870   2.9887090  28.0352210   4.8355790   3.2529350  29.5254190
  14.1650970  13.3647970  30.8562230  13.6881530  14.1720160  30.6634840
  13.4812760  12.7126300  31.0088440   5.1683790   9.5297790  33.8446930
   4.2712320   9.7537760  34.0920330   5.1936660   9.6532730  32.8958330
  12.2089010   6.3790910  19.7588190  12.6482290   5.5413340  19.6126010
  12.9217430   7.0120310  19.8452330   3.9955010   6.4011110  32.4204300
   3.8562780   7.2733910  32.7891700   3.1136370   6.0583920  32.2752240
  10.3184390  11.3186980  23.7269430  10.7580300  12.0611310  23.3124820
  10.2571280  11.5613550  24.6508390   5.7935360  12.3432810  34.6289450
   5.7650790  12.7475760  33.7617880   5.6300330  11.4143170  34.4661050
   2.3088290   4.9993520  22.5306570   2.1885890   5.7255610  21.9187840
   1.9989180   4.2296430  22.0534480  17.7450180  13.1259910  35.9253620
  18.2209900  13.6042800  36.6042700  18.3657340  13.0577400  35.1999120
  17.1483430  10.3172760  33.0853630  17.2746490  10.0784640  32.1670810
  17.1904810   9.4857300  33.5575710  11.0100170  14.0200760  31.6548440
  11.5244840  13.9308770  32.4570870  10.1669250  14.3660460  31.9476350
  12.9854570  14.3056100  21.0832440  12.8255710  14.0159040  21.9814270
  12.8201280  13.5296230  20.5477670   5.4642950  14.0854630  22.8604060
   5.2885430  13.1690170  22.6471860   4.6098690  14.4441920  23.1001860
  12.6880700  11.8143660  19.6430440  11.9945860  11.8120950  18.9832720
  13.4303560  11.3902980  19.2124610  12.2530630  13.4406370  23.7178930
  12.7087580  12.6595750  24.0317550  12.5923150  14.1513190  24.2620110
  14.0626270   2.4306060  32.6462220  13.2119860   2.1311810  32.9671290
  13.9028060   2.6748070  31.7346040  11.1575980   3.9307810  34.7461010
  11.4829390   3.0971560  34.4063240  11.9456310   4.4536330  34.8939340
   4.5666170   3.4662160  23.6411490   4.3407090   3.2499330  24.5458110
   3.7858700   3.8990620  23.2957460  11.7963930   3.4725530  22.2402140
  11.1972820   4.1961330  22.0565760  12.3443540   3.4102310  21.4578590
   7.0065380   4.3647740  34.3071760   6.9108980   3.4242470  34.1572160
   7.8497360   4.5862810  33.9119830  10.9883940   4.6994820  28.3656200
  10.2565060   5.2081630  28.7146300  10.5908280   3.8824800  28.0644980
   7.4881480   2.3761100  19.7615450   7.6094300   2.3347580  20.7101270
   7.1029990   3.2385250  19.6062180   6.5002980   4.6862240  19.1598750
   5.9319880   4.2380490  18.5334660   7.2091980   5.0455020  18.6263900
   7.7269300   5.4350800  28.5174100   8.0939430   4.9609370  29.2635440
   7.5374360   6.3092370  28.8582440   5.5168670   4.4759440  30.8358310
   5.2125740   5.3551420  31.0608670   6.4715130   4.5359230  30.8715750
   4.0450460   8.6820430  21.4325160   3.2712720   8.1418050  21.2723880
   4.7745090   8.1627040  21.0942920  14.8038440   7.6785790  27.2251550
  15.5237560   8.1741080  26.8347660  14.6020260   7.0003680  26.5805420
  10.1857240   7.7494850  33.1120550  10.1194550   6.8290520  32.8578140
   9.5562380   7.8470290  33.8265190  12.9796770   3.4443400  19.6643100
  13.8676390   3.7560630  19.4894440  12.9501860   2.5715650  19.2723680
   4.0887860   8.3500810  25.0703970   4.6066530   7.5469070  25.0160860
   3.6371880   8.2879950  25.9120800   8.9757360   9.6167090  20.3431270
   9.3173060  10.3609320  19.8474590   8.1470070   9.9298210  20.7056100
   4.7745520   5.7746420  34.8669220   4.4745660   5.9203600  33.9697040
   5.5456760   5.2151710  34.7742610  10.1173970  10.5715420  32.8624350
  10.1318510   9.6396380  32.6443260   9.4099070  10.6575180  33.5014120
  15.2511040   4.7555240  19.1322960  15.1674760   5.1869460  18.2819400
  15.9705230   5.2153590  19.5649780  16.3285180   7.2122760  32.2092930
  15.6033370   7.8051540  32.0122320  16.8560640   7.2046300  31.4106300
  16.2798290  11.6097500  21.8605090  15.6374450  10.9553120  22.1348810
  15.8928950  12.0152590  21.0845760  11.8584770   8.9382930  25.7076780
  12.2108590   8.3411060  25.0478150  10.9747100   8.6127160  25.8785030
   7.9448050   9.6980620  23.1147190   8.6319180  10.2449830  23.4954780
   7.1580470  10.2421350  23.1496800   7.2475260   6.7026650  22.7272550
   7.7038040   7.5131900  22.9532740   6.8963470   6.3849790  23.5591040
   9.5507870  12.2132990  29.9564850  10.1950090  12.4192370  30.6338270
   9.9137310  11.4521390  29.5035700  10.8239950  10.2165340  28.6742300
  11.4662180   9.5158500  28.7874470  11.3489300  10.9963780  28.4939190
  14.6695670  10.5013960  18.3981440  14.4433250   9.7844400  18.9906080
  14.2791870  10.2526400  17.5603190  12.5977570  11.0160240  31.8778360
  12.9333810  11.6026930  32.5556280  11.6777910  10.8852950  32.1076150
  14.2511920   8.4185900  20.0595600  13.9633620   8.8798590  20.8473480
  15.0464090   7.9583670  20.3279820   8.4266150  11.0651570  35.0466420
   8.1063020  10.3460810  35.5912110   7.7524510  11.7406640  35.1202480
   6.4680320  11.9112020  19.9899570   6.4590420  12.6441710  19.3744080
   5.5478680  11.6643600  20.0826530   9.4539920  11.9740260  18.6524760
   9.5551900  11.7704250  17.7226740   8.5541660  11.7198540  18.8572540
   6.9765810   2.5320620  22.6348660   6.2681960   3.0006960  23.0762270
   7.2610290   1.8742630  23.2693850   8.6021740   3.9517320  30.6341190
   9.1006990   4.4263140  31.2993040   8.7444690   3.0280840  30.8411220
   8.0958030  14.4926580  23.3472430   8.3499530  14.4547970  22.4251800
   7.1470510  14.3659910  23.3400680  14.1010610   5.4118460  24.9230940
  13.1600750   5.4268690  25.0978630  14.4154680   4.6254420  25.3691240
   4.0792250   7.0938060  18.4834900   4.8455520   6.9819420  19.0460330
   4.1566940   6.3976030  17.8311670   2.7739010   4.5263130  19.1667790
   2.8542600   3.5790640  19.2785190   3.6658760   4.8570010  19.2728450
  16.1036190  12.5827310  26.5985200  16.2283610  13.4058480  27.0709010
  16.9701750  12.3718040  26.2509350   3.5753720  14.6758520  26.2702330
   4.3116200  14.1273980  26.5410900   3.9594640  15.5414530  26.1308320
   2.5812000  13.8604590  35.4587910   3.3824730  14.1816640  35.8723310
   2.0663820  13.5000170  36.1807820   6.6856030  13.8488830  18.0927900
   7.4784640  14.1377660  17.6409690   6.1660380  13.4181000  17.4140380
  11.4176630   9.9684460  35.4063320  10.8114790   9.9916060  34.6659070
  11.1130740   9.2367500  35.9430570  12.8477000  13.6964750  34.0172730
  13.7998750  13.6122770  33.9672970  12.7005220  14.3606460  34.6906520
  15.7386200  13.0758960  19.5164640  15.4527710  12.6624100  18.7018820
  15.5405750  14.0046670  19.3965160   7.2033430   9.0692240  17.9570250
   7.0984070   8.4544590  18.6831630   7.0357650   8.5458130  17.1733260
   7.3547750   7.7549040  33.9359480   6.5893420   8.3234040  33.8514150
   7.5363710   7.4625250  33.0427710  10.4436160   8.1312270  18.5612240
   9.8946260   8.5781570  19.2054980  11.0655420   7.6261520  19.0849910
  14.4971100   9.4854370  34.4934500  15.2380570   9.8230130  33.9901960
  13.7343780   9.6546430  33.9404270   2.3332890   4.4907640  35.2974030
   2.3738230   4.1921510  36.2059260   3.1878390   4.8915250  35.1381550
   6.1111280   7.0903190  20.4577540   6.5327700   6.9243060  21.3008930
   6.2362120   6.2803420  19.9632680   4.2738700   3.0699740  33.2648520
   3.7435160   2.5790690  32.6371860   4.9426770   3.4983940  32.7306450
   8.6238920   6.1140800  17.7054640   9.1444580   5.3989820  17.3395790
   9.2707320   6.7526670  18.0055150  13.1716760   7.5369200  33.0289710
  13.5857780   7.6914280  33.8780130  12.2367760   7.6624420  33.1915490
  13.6438930   4.8765360  35.0328860  14.2259700   4.1217680  34.9449340
  13.8200700   5.4072800  34.2560340   7.9331990   7.4889680  30.9985640
   8.3520100   8.3322410  30.8261880   7.0140620   7.6261720  30.7692420
  10.2695890   5.2205860  32.3823480  10.3892100   4.6247000  33.1218320
  11.1289890   5.2575550  31.9624780  12.6083790   5.7743050  30.9585990
  12.0819010   6.2985670  30.3551130  12.9515130   6.4070440  31.5895720
   5.0070180   3.1636420  17.4035700   4.8059240   2.3003780  17.7649040
   4.8362230   3.0769780  16.4657300   5.7839410  13.7942690  32.1143370
   5.2460500  14.5188750  31.7952070   6.0373370  13.3173030  31.3240710
   8.6401620  15.0293900  32.3730020   8.5660320  15.9329040  32.6802390
   7.7380460  14.7105800  32.3452090   9.1886950  14.1952410  19.9956380
  10.0837740  14.5337380  20.0175140   9.2204580  13.4731820  19.3680660
   2.8283110   9.5679460  18.2243380   3.2657980  10.1109130  18.8800960
   3.3130840   8.7426410  18.2339720   4.6390830  10.6877500  23.3365610
   4.3386370  10.5642470  24.2369520   4.5328320   9.8286090  22.9281340
  16.1681300  12.7256080  32.7022580  15.5683290  12.7848640  31.9586500
  16.2975200  11.7861060  32.8319430  17.4082750  10.4673900  18.0392290
  16.5775710  10.5350550  18.5099520  17.5854580  11.3578020  17.7359150
  16.8639210   7.2121380  20.5426490  17.6258120   7.7818030  20.6486180
  16.8793580   6.6448580  21.3134800  17.8699180   8.0671480  25.3868420
  18.2408010   7.2838800  24.9804390  18.5101110   8.7560580  25.2085720
  14.8532940   9.4508060  30.7998740  14.0392780   9.8805220  31.0624530
  15.2607140  10.0626470  30.1867790  16.9158380   7.5055750  17.6999010
  17.1907220   8.4134630  17.5718230  16.7269120   7.4418280  18.6361000
  16.8123720   5.4424740  22.6928440  16.4367320   4.6752670  22.2609730
  16.0826840   5.8247440  23.1803370  16.2023340   4.5896260  32.3267960
  15.9709430   4.3609010  31.4265910  16.4627890   5.5095810  32.2812850
  16.0874680   3.6682230  25.9935680  16.6112160   3.1744880  25.3625850
  16.6734100   3.8032590  26.7383250  16.2664400   3.7522100  29.5155230
  15.3167110   3.7185640  29.6300220  16.4477410   4.6622210  29.2805000
  15.5774650   2.9255580  21.9328090  16.0733770   2.6926450  22.7176970
  15.3790720   2.0867420  21.5165730  14.9108990  14.2026660  24.3267010
  15.5068060  13.8811230  23.6501430  15.1687140  13.7298480  25.1180280
   2.8171560  10.6344570  34.4757640   2.7741190  10.2637480  35.3572100
   2.9482570  11.5722140  34.6159460   6.5177590  12.1904160  30.0767360
   6.2768950  12.4578720  29.1897880   7.4580230  12.3609890  30.1318220
  17.7781750  14.2098540  30.8778000  17.2840030  14.6067410  30.1605130
  17.1695040  13.5847750  31.2715280   2.6559590  13.5806820  31.5955420
   2.0619910  13.4491520  32.3345460   2.6483430  12.7444960  31.1297520
  15.4621200  14.8521960  28.1564740  15.0024170  15.6037770  27.7822760
  14.8333660  14.1328430  28.0979540   5.8916920  13.1610200  27.3312870
   6.4081940  12.5497560  26.8061130   6.5414300  13.6638980  27.8223880
   8.6312420  14.0518690  28.1581850   8.9190230  13.7972990  27.2814860
   9.1435640  13.4996050  28.7487420   2.1764520  12.9572820  21.2010360
   1.6512140  13.3380850  20.4972320   2.1009100  13.5823590  21.9220070
   8.6984780  14.9734790  35.5250050   9.6252090  14.7379060  35.5686010
   8.6835210  15.8006790  35.0436080  16.9329840  14.5160360  22.5224300
  17.1082030  13.8298100  21.8785220  16.2351410  15.0407410  22.1300970
   4.7757490  14.9055200  20.0759610   5.5076310  14.6214480  19.5283500
   5.0351160  14.6668480  20.9658990   3.9372280  11.0219930  20.0805940
   3.3081160  11.4905030  20.6291770   4.0520110  10.1769150  20.5152130
  15.2662340  14.2004650  35.3491090  16.0587660  13.7053880  35.1417050
  15.5595490  14.8794790  35.9566700  11.3922000   5.0725590   6.2307140
  11.3116050   4.1580200   5.9598850  10.9786420   5.5692660   5.5246850
   9.5240040   6.8504610   8.1116410   8.7482140   6.3705050   8.4014980
  10.1752970   6.1710260   7.9372570   3.5405870   7.1624420   8.9892170
   2.7090750   6.9073130   9.3888680   4.1486850   7.2335190   9.7250090
  13.5447470  11.2564800   6.8915540  13.0829000  10.4852040   7.2202710
  14.3573020  11.2830870   7.3967990   3.5207130  11.1964510   9.1850190
   3.8235170  10.3062250   9.0060410   4.2650720  11.7534730   8.9572440
   9.7710780  13.5422810   6.5119530   9.1522220  13.9980310   5.9413970
  10.6262560  13.6974270   6.1109230   8.9649030   9.5261800   8.1186570
   8.8957310   8.5851740   7.9575700   9.7268890   9.6163210   8.6909140
   5.9666940   3.6744180   8.1398120   6.4745160   4.1725150   8.7803140
   6.4980180   2.8979380   7.9637480  18.0677870   1.8449370  11.8427470
  17.3630040   2.2331080  11.3242580  18.3335790   2.5399660  12.4448400
  10.6374130   8.4262050   3.9051440  10.0191400   8.8911500   3.3414160
  11.1497380   9.1189530   4.3220950   5.5005890   7.9537920  10.5835040
   5.1675270   8.5806840  11.2256110   5.6772570   8.4799800   9.8036710
  14.0139800   1.7683000   8.0511380  13.3095370   2.0567890   8.6314490
  14.3751960   2.5783110   7.6910940   4.7124990   9.9218720  12.3984220
   5.3298990  10.5969800  12.1168670   3.8518110  10.3306700  12.3071720
  15.6302580  11.3858130  10.3138860  14.9466100  12.0557240  10.3055530
  16.1696870  11.5838780   9.5483720  13.1661320  13.2302260   9.0284040
  13.1788480  12.8264550   8.1606300  12.6136540  14.0049550   8.9245470
  14.4606740   9.9518480   4.1174210  14.3503070   9.0092810   4.2423630
  14.4574990  10.3134120   5.0036970  12.5646760   8.1332100  10.3566650
  12.9815550   7.9192210   9.5220110  13.2886580   8.3904890  10.9275270
  10.0027020   5.5783800   3.4736700   9.0756300   5.5121180   3.7025170
  10.1551840   6.5163930   3.3591940  16.5108860   6.5319320  10.4482890
  15.6827490   6.6012410   9.9733020  17.1059340   7.1173630   9.9798720
  14.0324310   7.1404100   3.9771950  13.4136730   6.8023650   3.3298250
  14.0148760   6.4963860   4.6851140  13.4750870   3.3188640  11.3937760
  13.0622050   4.1442350  11.6477750  12.7426820   2.7333680  11.2014120
   5.6083660   6.1048540   6.2556430   5.2040660   5.3925790   5.7602330
   5.6946780   5.7601780   7.1444470   6.0765360   9.7916100   8.4195640
   5.7793650   9.1861570   7.7403420   7.0265180   9.8293410   8.3085000
   4.3212280   2.8791750  10.0355470   4.8726870   2.9887090   9.2608720
   4.8355790   3.2529350  10.7510700  14.1650970  13.3647970  12.0818740
  13.6881530  14.1720160  11.8891350  13.4812760  12.7126300  12.2344950
   5.1683790   9.5297790  15.0703440   4.2712320   9.7537760  15.3176840
   5.1936660   9.6532730  14.1214840   3.9955010   6.4011110  13.6460810
   3.8562780   7.2733910  14.0148210   3.1136370   6.0583920  13.5008750
  10.3184390  11.3186980   4.9525940  10.7580300  12.0611310   4.5381330
  10.2571280  11.5613550   5.8764900   5.7935360  12.3432810  15.8545960
   5.7650790  12.7475760  14.9874390   5.6300330  11.4143170  15.6917560
   2.3088290   4.9993520   3.7563080   2.1885890   5.7255610   3.1444350
   1.9989180   4.2296430   3.2790990  17.7450180  13.1259910  17.1510130
  18.2209900  13.6042800  17.8299210  18.3657340  13.0577400  16.4255630
  17.1483430  10.3172760  14.3110140  17.2746490  10.0784640  13.3927320
  17.1904810   9.4857300  14.7832220  11.0100170  14.0200760  12.8804950
  11.5244840  13.9308770  13.6827380  10.1669250  14.3660460  13.1732860
  12.9854570  14.3056100   2.3088950  12.8255710  14.0159040   3.2070780
  12.8201280  13.5296230   1.7734180   5.4642950  14.0854630   4.0860570
   5.2885430  13.1690170   3.8728370   4.6098690  14.4441920   4.3258370
  12.2530630  13.4406370   4.9435440  12.7087580  12.6595750   5.2574060
  12.5923150  14.1513190   5.4876620  14.0626270   2.4306060  13.8718730
  13.2119860   2.1311810  14.1927800  13.9028060   2.6748070  12.9602550
  11.1575980   3.9307810  15.9717520  11.4829390   3.0971560  15.6319750
  11.9456310   4.4536330  16.1195850   4.5666170   3.4662160   4.8668000
   4.3407090   3.2499330   5.7714620   3.7858700   3.8990620   4.5213970
  11.7963930   3.4725530   3.4658650  11.1972820   4.1961330   3.2822270
  12.3443540   3.4102310   2.6835100   7.0065380   4.3647740  15.5328270
   6.9108980   3.4242470  15.3828670   7.8497360   4.5862810  15.1376340
  10.9883940   4.6994820   9.5912710  10.2565060   5.2081630   9.9402810
  10.5908280   3.8824800   9.2901490   7.7269300   5.4350800   9.7430610
   8.0939430   4.9609370  10.4891950   7.5374360   6.3092370  10.0838950
   5.5168670   4.4759440  12.0614820   5.2125740   5.3551420  12.2865180
   6.4715130   4.5359230  12.0972260   4.0450460   8.6820430   2.6581670
   3.2712720   8.1418050   2.4980390   4.7745090   8.1627040   2.3199430
  14.8038440   7.6785790   8.4508060  15.5237560   8.1741080   8.0604170
  14.6020260   7.0003680   7.8061930  10.1857240   7.7494850  14.3377060
  10.1194550   6.8290520  14.0834650   9.5562380   7.8470290  15.0521700
   4.0887860   8.3500810   6.2960480   4.6066530   7.5469070   6.2417370
   3.6371880   8.2879950   7.1377310   4.7745520   5.7746420  16.0925730
   4.4745660   5.9203600  15.1953550   5.5456760   5.2151710  15.9999120
  10.1173970  10.5715420  14.0880860  10.1318510   9.6396380  13.8699770
   9.4099070  10.6575180  14.7270630  16.3285180   7.2122760  13.4349440
  15.6033370   7.8051540  13.2378830  16.8560640   7.2046300  12.6362810
  16.2798290  11.6097500   3.0861600  15.6374450  10.9553120   3.3605320
  15.8928950  12.0152590   2.3102270  11.8584770   8.9382930   6.9333290
  12.2108590   8.3411060   6.2734660  10.9747100   8.6127160   7.1041540
   7.9448050   9.6980620   4.3403700   8.6319180  10.2449830   4.7211290
   7.1580470  10.2421350   4.3753310   7.2475260   6.7026650   3.9529060
   7.7038040   7.5131900   4.1789250   6.8963470   6.3849790   4.7847550
   9.5507870  12.2132990  11.1821360  10.1950090  12.4192370  11.8594780
   9.9137310  11.4521390  10.7292210  10.8239950  10.2165340   9.8998810
  11.4662180   9.5158500  10.0130980  11.3489300  10.9963780   9.7195700
  12.5977570  11.0160240  13.1034870  12.9333810  11.6026930  13.7812790
  11.6777910  10.8852950  13.3332660   8.4266150  11.0651570  16.2722930
   8.1063020  10.3460810  16.8168620   7.7524510  11.7406640  16.3458990
   6.9765810   2.5320620   3.8605170   6.2681960   3.0006960   4.3018780
   7.2610290   1.8742630   4.4950360   8.6021740   3.9517320  11.8597700
   9.1006990   4.4263140  12.5249550   8.7444690   3.0280840  12.0667730
   8.0958030  14.4926580   4.5728940   8.3499530  14.4547970   3.6508310
   7.1470510  14.3659910   4.5657190  14.1010610   5.4118460   6.1487450
  13.1600750   5.4268690   6.3235140  14.4154680   4.6254420   6.5947750
  16.1036190  12.5827310   7.8241710  16.2283610  13.4058480   8.2965520
  16.9701750  12.3718040   7.4765860   3.5753720  14.6758520   7.4958840
   4.3116200  14.1273980   7.7667410   3.9594640  15.5414530   7.3564830
   2.5812000  13.8604590  16.6844420   3.3824730  14.1816640  17.0979820
   2.0663820  13.5000170  17.4064330  11.4176630   9.9684460  16.6319830
  10.8114790   9.9916060  15.8915580  11.1130740   9.2367500  17.1687080
  12.8477000  13.6964750  15.2429240  13.7998750  13.6122770  15.1929480
  12.7005220  14.3606460  15.9163030   7.3547750   7.7549040  15.1615990
   6.5893420   8.3234040  15.0770660   7.5363710   7.4625250  14.2684220
  14.4971100   9.4854370  15.7191010  15.2380570   9.8230130  15.2158470
  13.7343780   9.6546430  15.1660780   2.3332890   4.4907640  16.5230540
   2.3738230   4.1921510  17.4315770   3.1878390   4.8915250  16.3638060
   4.2738700   3.0699740  14.4905030   3.7435160   2.5790690  13.8628370
   4.9426770   3.4983940  13.9562960  13.1716760   7.5369200  14.2546220
  13.5857780   7.6914280  15.1036640  12.2367760   7.6624420  14.4172000
  13.6438930   4.8765360  16.2585370  14.2259700   4.1217680  16.1705850
  13.8200700   5.4072800  15.4816850   7.9331990   7.4889680  12.2242150
   8.3520100   8.3322410  12.0518390   7.0140620   7.6261720  11.9948930
  10.2695890   5.2205860  13.6079990  10.3892100   4.6247000  14.3474830
  11.1289890   5.2575550  13.1881290  12.6083790   5.7743050  12.1842500
  12.0819010   6.2985670  11.5807640  12.9515130   6.4070440  12.8152230
   5.7839410  13.7942690  13.3399880   5.2460500  14.5188750  13.0208580
   6.0373370  13.3173030  12.5497220   8.6401620  15.0293900  13.5986530
   8.5660320  15.9329040  13.9058900   7.7380460  14.7105800  13.5708600
   4.6390830  10.6877500   4.5622120   4.3386370  10.5642470   5.4626030
   4.5328320   9.8286090   4.1537850  16.1681300  12.7256080  13.9279090
  15.5683290  12.7848640  13.1843010  16.2975200  11.7861060  14.0575940
  16.8639210   7.2121380   1.7683000  17.6258120   7.7818030   1.8742690
  16.8793580   6.6448580   2.5391310  17.8699180   8.0671480   6.6124930
  18.2408010   7.2838800   6.2060900  18.5101110   8.7560580   6.4342230
  14.8532940   9.4508060  12.0255250  14.0392780   9.8805220  12.2881040
  15.2607140  10.0626470  11.4124300  16.8123720   5.4424740   3.9184950
  16.4367320   4.6752670   3.4866240  16.0826840   5.8247440   4.4059880
  16.2023340   4.5896260  13.5524470  15.9709430   4.3609010  12.6522420
  16.4627890   5.5095810  13.5069360  16.0874680   3.6682230   7.2192190
  16.6112160   3.1744880   6.5882360  16.6734100   3.8032590   7.9639760
  16.2664400   3.7522100  10.7411740  15.3167110   3.7185640  10.8556730
  16.4477410   4.6622210  10.5061510  15.5774650   2.9255580   3.1584600
  16.0733770   2.6926450   3.9433480  15.3790720   2.0867420   2.7422240
  14.9108990  14.2026660   5.5523520  15.5068060  13.8811230   4.8757940
  15.1687140  13.7298480   6.3436790   2.8171560  10.6344570  15.7014150
   2.7741190  10.2637480  16.5828610   2.9482570  11.5722140  15.8415970
   6.5177590  12.1904160  11.3023870   6.2768950  12.4578720  10.4154390
   7.4580230  12.3609890  11.3574730  17.7781750  14.2098540  12.1034510
  17.2840030  14.6067410  11.3861640  17.1695040  13.5847750  12.4971790
   2.6559590  13.5806820  12.8211930   2.0619910  13.4491520  13.5601970
   2.6483430  12.7444960  12.3554030  15.4621200  14.8521960   9.3821250
  15.0024170  15.6037770   9.0079270  14.8333660  14.1328430   9.3236050
   5.8916920  13.1610200   8.5569380   6.4081940  12.5497560   8.0317640
   6.5414300  13.6638980   9.0480390   8.6312420  14.0518690   9.3838360
   8.9190230  13.7972990   8.5071370   9.1435640  13.4996050   9.9743930
   2.1764520  12.9572820   2.4266870   1.6512140  13.3380850   1.7228830
   2.1009100  13.5823590   3.1476580   8.6984780  14.9734790  16.7506560
   9.6252090  14.7379060  16.7942520   8.6835210  15.8006790  16.2692590
  16.9329840  14.5160360   3.7480810  17.1082030  13.8298100   3.1041730
  16.2351410  15.0407410   3.3557480  15.2662340  14.2004650  16.5747600
  16.0587660  13.7053880  16.3673560  15.5595490  14.8794790  17.1823210
 111.1021650  86.8341420  90.5519010  90.0000000  90.0000000  90.0000000
