default_name
  7440
 -15.5420000  19.3310000  59.7190000 -14.7400000  19.3880000  60.3320000
 -15.4250000  19.9700000  58.9450000 -16.3760000  19.5770000  60.2340000
 -15.6580000  17.9710000  59.2100000 -14.7640000  17.7530000  58.6250000
 -15.7290000  16.9450000  60.3660000 -16.6770000  17.0370000  60.8960000
 -15.5600000  15.5090000  59.8620000 -15.7550000  14.8130000  60.6780000
 -16.2430000  15.2970000  59.0470000 -14.5410000  15.3580000  59.5020000
 -14.6860000  17.2290000  61.3050000 -14.6990000  16.5530000  61.9880000
 -16.8700000  17.8310000  58.2850000 -16.7980000  18.2160000  57.1190000
 -17.9870000  17.3190000  58.7940000 -18.0400000  17.0700000  59.7700000
 -19.0250000  16.7990000  57.9060000 -18.5330000  16.4210000  57.0160000
 -19.7420000  15.6100000  58.5790000 -19.6260000  15.6830000  59.6630000
 -21.2390000  15.6110000  58.2890000 -21.7240000  14.8010000  58.8330000
 -21.7270000  16.5110000  58.6620000 -21.4380000  15.4700000  57.2260000
 -19.0730000  14.3220000  58.0960000 -19.0590000  14.2950000  57.0130000
 -18.0410000  14.3100000  58.4330000 -19.7080000  13.1080000  58.5810000
 -19.1070000  12.2490000  58.2840000 -19.7700000  13.1290000  59.6700000
 -20.7020000  12.9910000  58.1650000 -20.0530000  17.8290000  57.4210000
 -20.4590000  18.7330000  58.1530000 -20.4340000  17.6880000  56.1530000
 -20.0620000  16.9270000  55.6010000 -21.4150000  18.5570000  55.5160000
 -22.1340000  18.8950000  56.2630000 -20.7250000  19.7840000  54.9220000
 -21.4820000  20.4700000  54.5400000 -20.2230000  20.2880000  55.7450000
 -19.7580000  19.4620000  53.8050000 -19.1740000  18.5950000  54.0840000
 -20.3170000  19.2250000  52.8990000 -18.8230000  20.6280000  53.5240000
 -18.2030000  20.3680000  52.6640000 -19.4030000  21.5200000  53.2810000
 -17.9180000  20.9040000  54.7210000 -18.5200000  21.2700000  55.5520000
 -17.4420000  19.9710000  55.0220000 -16.8600000  21.9130000  54.4210000
 -17.2770000  22.7730000  54.0960000 -16.3000000  22.0830000  55.2430000
 -16.2470000  21.5460000  53.7010000 -22.1860000  17.7870000  54.4430000
 -21.7760000  16.7020000  54.0300000 -23.3080000  18.3410000  54.0010000
 -23.6050000  19.2420000  54.3450000 -24.1780000  17.6280000  53.0740000
 -24.0760000  16.5560000  53.2470000 -25.6420000  17.9760000  53.3410000
 -26.2680000  17.2250000  52.8570000 -25.8180000  17.9180000  54.4160000
 -26.0600000  19.3380000  52.8270000 -25.4290000  20.1040000  53.2810000
 -25.9360000  19.3810000  51.7440000 -27.5080000  19.6540000  53.1400000
 -28.0760000  19.0140000  54.0510000 -28.0790000  20.5380000  52.4690000
 -23.8230000  17.9140000  51.6190000 -23.1770000  18.9140000  51.3000000
 -24.2640000  17.0220000  50.7410000 -24.8410000  16.2580000  51.0590000
 -23.8720000  17.0450000  49.3410000 -22.9020000  17.5330000  49.2880000
 -23.6690000  15.6140000  48.8470000 -23.0740000  15.1240000  49.6150000
 -24.6340000  15.1080000  48.7890000 -22.9590000  15.4850000  47.5200000
 -23.5420000  15.9740000  46.7420000 -21.9810000  15.9620000  47.5870000
 -22.7380000  13.7480000  47.0870000 -21.9870000  13.1000000  48.5770000
 -21.5530000  12.1230000  48.3630000 -21.1990000  13.7720000  48.9170000
 -22.7380000  12.9840000  49.3580000 -24.9020000  17.7590000  48.4740000
 -26.1010000  17.4890000  48.5810000 -24.4400000  18.6780000  47.6130000
 -23.0450000  19.1260000  47.4610000 -22.3420000  18.2950000  47.4110000
 -22.7860000  19.8120000  48.2680000 -23.0620000  19.8490000  46.1430000
 -22.9100000  19.1330000  45.3390000 -22.3080000  20.6350000  46.1020000
 -24.4440000  20.3920000  45.9960000 -24.7120000  20.5520000  44.9520000
 -24.5170000  21.3340000  46.5420000 -25.3430000  19.3510000  46.6710000
 -26.1520000  19.8510000  47.2060000 -25.9170000  18.3720000  45.6490000
 -25.2790000  17.3700000  45.3210000 -27.1180000  18.6580000  45.1620000
 -27.6090000  19.4840000  45.4730000 -27.7770000  17.7820000  44.2070000
 -27.0050000  17.2110000  43.7000000 -28.6760000  16.7750000  44.9300000
 -28.0780000  16.2390000  45.6660000 -29.4440000  17.3330000  45.4700000
 -29.3590000  15.7690000  44.0180000 -29.9560000  16.2880000  43.2700000
 -28.6400000  15.1710000  43.5150000 -30.2710000  14.8190000  44.7720000
 -30.4670000  14.9530000  45.9810000 -30.8370000  13.8520000  44.0590000
 -31.4680000  13.2040000  44.5110000 -30.6360000  13.7720000  43.0720000
 -28.5830000  18.6150000  43.2230000 -29.3840000  19.4540000  43.6300000
 -28.3680000  18.3880000  41.9190000 -27.4580000  17.3680000  41.3680000
 -27.6300000  16.4200000  41.8490000 -26.4190000  17.6860000  41.4430000
 -27.8930000  17.2620000  39.9390000 -28.7040000  16.5410000  39.8590000
 -27.0680000  16.9570000  39.2960000 -28.3970000  18.6210000  39.5810000
 -29.0780000  18.6020000  38.7380000 -27.5470000  19.2590000  39.3350000
 -29.0530000  19.1410000  40.8630000 -28.8600000  20.2090000  40.9690000
 -30.5580000  18.8910000  40.8440000 -31.0560000  18.0680000  41.6150000
 -31.2590000  19.5970000  39.9600000 -30.7720000  20.2390000  39.3520000
 -32.7180000  19.5490000  39.8720000 -33.1090000  20.0350000  40.7670000
 -33.1910000  20.3340000  38.6450000 -32.7950000  21.3500000  38.6890000
 -32.7710000  19.8590000  37.7580000 -34.7010000  20.3870000  38.4680000
 -34.9020000  20.7620000  37.4640000 -35.1550000  19.4000000  38.5480000
 -35.3350000  21.3470000  39.4540000 -35.1690000  20.9940000  40.4720000
 -34.8770000  22.3310000  39.3400000 -36.8280000  21.4700000  39.2180000
 -37.0030000  21.7310000  38.1730000 -37.2980000  20.5050000  39.4190000
 -37.4380000  22.5140000  40.0920000 -37.0400000  23.4180000  39.8780000
 -38.4360000  22.5540000  39.9340000 -37.2650000  22.2890000  41.0620000
 -33.2730000  18.1270000  39.8130000 -32.7730000  17.2830000  39.0670000
 -34.3030000  17.8690000  40.6130000 -34.6710000  18.5910000  41.2130000
 -34.9880000  16.5830000  40.5820000 -34.4220000  15.8990000  39.9660000
 -35.0860000  15.9530000  41.9790000 -35.7200000  15.0680000  41.9340000
 -33.7090000  15.5480000  42.4700000 -33.7960000  15.1030000  43.4620000
 -33.2840000  14.8030000  41.7980000 -33.0440000  16.4090000  42.5300000
 -35.6560000  16.8990000  42.8910000 -34.9770000  17.5360000  43.1280000
 -36.3860000  16.7310000  39.9950000 -37.0300000  17.7710000  40.1380000
 -36.8460000  15.6770000  39.3310000 -36.3060000  14.8290000  39.2940000
 -38.1190000  15.7050000  38.6260000 -38.6410000  16.6430000  38.8180000
 -37.8960000  15.6030000  37.1140000 -37.4610000  14.6260000  36.9100000
 -38.8580000  15.6600000  36.6010000 -36.9720000  16.6580000  36.5620000
 -35.5940000  16.4860000  36.6040000 -35.1700000  15.5900000  37.0020000
 -34.7420000  17.4530000  36.1000000 -33.6860000  17.3400000  36.1950000
 -35.2630000  18.6030000  35.5410000 -34.6020000  19.3620000  35.1470000
 -36.6340000  18.7860000  35.4910000 -37.0430000  19.6840000  35.0490000
 -37.4800000  17.8170000  35.9980000 -38.5490000  17.9730000  35.9580000
 -39.0230000  14.5760000  39.1040000 -39.3260000  13.6480000  38.3510000
 -39.4480000  14.6600000  40.3610000 -39.1580000  15.4360000  40.9380000
 -40.3280000  13.6600000  40.9360000 -40.6550000  13.9950000  41.9200000
 -41.2120000  13.5610000  40.3040000 -39.6540000  12.3110000  41.0840000
 -38.5190000  12.2250000  41.5560000 -40.3510000  11.2570000  40.6690000
 -41.2760000  11.3820000  40.2830000 -39.8450000   9.8950000  40.8130000
 -39.4860000   9.7580000  41.8340000 -40.9650000   8.8840000  40.5560000
 -41.6880000   9.3510000  39.8860000 -40.5650000   8.0060000  40.0460000
 -41.6620000   8.3980000  41.8200000 -41.0330000   7.6590000  42.3190000
 -41.7950000   9.2460000  42.4950000 -43.0280000   7.8060000  41.5360000
 -43.3650000   7.6390000  40.3430000 -43.7640000   7.5060000  42.5000000
 -38.6660000   9.6210000  39.8840000 -37.8850000   8.6980000  40.1190000
 -38.5380000  10.4290000  38.8350000 -39.2120000  11.1670000  38.6870000
 -37.4340000  10.3000000  37.8880000 -37.2500000   9.2430000  37.7010000
 -37.7740000  10.9950000  36.5670000 -38.0250000  12.0370000  36.7590000
 -36.8750000  10.9700000  35.9660000 -38.8580000  10.3480000  35.7020000
 -39.7860000  10.3140000  36.2730000 -39.1090000  11.1840000  34.4590000
 -39.9370000  10.7580000  33.8910000 -39.3710000  12.2040000  34.7430000
 -38.2180000  11.2010000  33.8310000 -38.4730000   8.9260000  35.3250000
 -39.2040000   8.5240000  34.6230000 -37.4890000   8.9100000  34.8590000
 -38.4720000   8.2820000  36.2040000 -36.1420000  10.8740000  38.4600000
 -35.0610000  10.6310000  37.9250000 -36.2650000  11.6360000  39.5450000
 -37.1820000  11.7870000  39.9430000 -35.1180000  12.2410000  40.2170000
 -35.4840000  12.8890000  41.0110000 -34.2250000  11.1600000  40.8320000
 -33.7990000  10.5320000  40.0540000 -33.4140000  11.6420000  41.3760000
 -34.9440000  10.2120000  41.7900000 -35.7740000   9.7170000  41.2890000
 -34.2390000   9.4420000  42.1060000 -35.4460000  10.9510000  43.0200000
 -34.6110000  11.4510000  43.5050000 -36.1740000  11.7050000  42.7260000
 -36.1160000  10.0090000  44.0040000 -36.9880000   9.5560000  43.5290000
 -35.4110000   9.2210000  44.2720000 -36.5330000  10.7330000  45.2370000
 -35.7170000  11.1530000  45.6640000 -37.2000000  11.4540000  45.0010000
 -36.9560000  10.0870000  45.8880000 -34.3180000  13.1160000  39.2510000
 -34.8520000  14.0660000  38.6830000 -33.0440000  12.7840000  39.0530000
 -32.6490000  11.9800000  39.5190000 -32.1780000  13.5640000  38.1680000
 -32.5360000  14.5930000  38.1330000 -30.7440000  13.5780000  38.7060000
 -30.3230000  12.5790000  38.7470000 -30.1240000  14.1450000  38.0170000
 -30.6290000  14.2580000  40.0500000 -30.0600000  13.7020000  40.9900000
 -31.1630000  15.4700000  40.1510000 -31.0890000  15.9810000  41.0190000
 -31.6150000  15.8900000  39.3540000 -32.1520000  13.0680000  36.7180000
 -31.5100000  13.6830000  35.8680000 -32.8440000  11.9640000  36.4440000
 -33.3640000  11.5060000  37.1800000 -32.7840000  11.3090000  35.1320000
 -31.7680000  10.9300000  35.0270000 -33.7520000  10.1190000  35.0920000
 -33.6650000   9.5730000  36.0320000 -34.7750000  10.4660000  35.0230000
 -33.5340000   9.1090000  33.9620000 -33.3470000   9.6530000  33.0390000
 -32.3230000   8.2370000  34.2550000 -32.0550000   7.7160000  33.3440000
 -31.4660000   8.8330000  34.5690000 -32.5560000   7.5070000  35.0310000
 -34.7770000   8.2610000  33.7270000 -34.5600000   7.4870000  32.9930000
 -35.0900000   7.7860000  34.6580000 -35.5840000   8.8880000  33.3490000
 -33.0600000  12.2170000  33.9200000 -32.3510000  12.1160000  32.9180000
 -34.0880000  13.0930000  33.9910000 -35.1810000  13.2100000  34.9770000
 -34.8510000  13.8470000  35.7940000 -35.5140000  12.2670000  35.3660000
 -36.2690000  13.8870000  34.2020000 -36.9510000  14.4490000  34.8270000
 -36.8260000  13.1360000  33.6410000 -35.5600000  14.7680000  33.2510000
 -35.2500000  15.6790000  33.7660000 -36.1860000  15.0200000  32.3950000
 -34.3330000  13.9560000  32.8260000 -34.5860000  13.3340000  31.9660000
 -33.1730000  14.8900000  32.4710000 -33.1220000  15.3740000  31.3400000
 -32.2630000  15.1340000  33.4090000 -32.3370000  14.6950000  34.3160000
 -31.1040000  15.9810000  33.1400000 -31.4550000  16.9300000  32.7340000
 -30.3160000  16.2480000  34.4240000 -29.9860000  15.2970000  34.8380000
 -29.4060000  16.7820000  34.1440000 -31.0110000  17.0720000  35.5090000
 -31.9120000  16.5390000  35.7850000 -30.1390000  17.1480000  36.7480000
 -30.6980000  17.6340000  37.5450000 -29.8600000  16.1490000  37.0750000
 -29.2350000  17.7170000  36.5320000 -31.3500000  18.4670000  35.0050000
 -31.7260000  19.0770000  35.8280000 -30.4660000  18.9500000  34.5830000
 -32.1300000  18.4090000  34.2440000 -30.1920000  15.3520000  32.0910000
 -29.4940000  16.0570000  31.3630000 -30.2040000  14.0240000  32.0180000
 -30.8040000  13.4870000  32.6280000 -29.3700000  13.3050000  31.0600000
 -28.5530000  13.9420000  30.7260000 -28.7670000  12.0500000  31.7020000
 -29.5800000  11.4370000  32.0860000 -28.2520000  11.4780000  30.9290000
 -27.7540000  12.2340000  32.8360000 -28.2870000  12.6150000  33.7000000
 -27.0850000  10.9110000  33.1870000 -26.4180000  11.0460000  34.0390000
 -27.8450000  10.1740000  33.4500000 -26.5110000  10.5420000  32.3360000
 -26.7160000  13.2810000  32.4780000 -25.9500000  13.3090000  33.2450000
 -26.2480000  13.0400000  31.5230000 -27.1700000  14.2700000  32.4280000
 -30.1420000  12.9190000  29.7980000 -29.7390000  12.0130000  29.0660000
 -31.2520000  13.6020000  29.5430000 -31.5670000  14.3280000  30.1700000
 -31.9800000  13.3880000  28.3000000 -31.9300000  12.3250000  28.0590000
 -33.4460000  13.7910000  28.4380000 -33.8040000  13.4690000  29.4160000
 -33.5670000  14.8750000  28.4080000 -34.3310000  13.1070000  27.4130000
 -34.1050000  11.9490000  27.0570000 -35.3390000  13.8230000  26.9270000
 -35.4430000  14.8010000  27.1880000 -35.9770000  13.3810000  26.2710000
 -31.3060000  14.1710000  27.1800000 -31.8550000  15.1360000  26.6470000
 -30.0950000  13.7410000  26.8490000 -29.7120000  12.9280000  27.3140000
 -29.2680000  14.3810000  25.8390000 -29.9000000  14.7760000  25.0430000
 -28.4340000  15.5340000  26.4330000 -29.0830000  16.3860000  26.6360000
 -27.7720000  15.0950000  27.7310000 -27.0720000  15.8650000  28.0540000
 -28.5150000  14.9760000  28.5180000 -27.2230000  14.1640000  27.5970000
 -27.4180000  15.9270000  25.5040000 -27.8360000  16.2110000  24.6860000
 -28.3570000  13.3180000  25.2480000 -28.0440000  12.3360000  25.9160000
 -27.9430000  13.4930000  23.9970000 -28.2130000  14.3080000  23.4640000
 -27.0070000  12.5500000  23.3880000 -27.1590000  11.5570000  23.8110000
 -27.2460000  12.4320000  21.8710000 -26.5330000  11.7240000  21.4460000
 -28.2480000  12.0320000  21.7080000 -27.1360000  13.7650000  21.1400000
 -27.2850000  14.8300000  21.7800000 -26.9160000  13.7430000  19.9080000
 -25.5640000  12.9660000  23.6980000 -24.6100000  12.3890000  23.1710000
 -25.4210000  13.9650000  24.5680000 -26.2440000  14.4110000  24.9430000
 -24.1200000  14.3800000  25.0870000 -23.3620000  13.6430000  24.8210000
 -23.6960000  15.7160000  24.4680000 -24.4290000  16.4780000  24.7410000
 -22.7300000  16.0040000  24.8850000 -23.5750000  15.6940000  22.9500000
 -22.8000000  14.9810000  22.6640000 -24.5210000  15.3790000  22.5080000
 -23.2280000  17.0670000  22.3940000 -24.0050000  17.7750000  22.6880000
 -22.2740000  17.3970000  22.8080000 -23.1310000  17.0430000  20.8770000
 -22.3160000  16.3810000  20.5820000 -24.0620000  16.6500000  20.4660000
 -22.8850000  18.4010000  20.3190000 -22.0310000  18.7790000  20.7010000
 -22.7750000  18.3300000  19.3140000 -23.6600000  19.0120000  20.5260000
 -24.1430000  14.4920000  26.6190000 -24.0590000  15.5920000  27.1630000
 -24.2470000  13.3470000  27.3190000 -24.2760000  11.9830000  26.7590000
 -23.4410000  11.7630000  26.1020000 -25.2090000  11.8430000  26.2140000
 -24.3040000  11.1060000  27.9780000 -23.2850000  10.8490000  28.2670000
 -24.8680000  10.1920000  27.7900000 -24.9330000  11.9170000  29.0480000
 -24.6500000  11.5660000  30.0410000 -26.0180000  11.8780000  28.9370000
 -24.4520000  13.3440000  28.7730000 -25.2420000  14.0460000  29.0420000
 -23.2040000  13.6540000  29.6020000 -23.3340000  14.3030000  30.6380000
 -22.0300000  13.1960000  29.1750000 -21.9700000  12.6650000  28.3140000
 -20.8010000  13.4820000  29.9170000 -20.9340000  13.1690000  30.9520000
 -19.5870000  12.7230000  29.3340000 -19.5720000  12.8530000  28.2540000
 -18.2790000  13.2990000  29.8580000 -17.4600000  12.7610000  29.3960000
 -18.1430000  14.3390000  29.5630000 -18.2210000  13.2060000  30.9430000
 -19.6830000  11.2400000  29.6520000 -20.6190000  10.8320000  29.2690000
 -18.8600000  10.7090000  29.1760000 -19.6400000  11.0830000  30.7300000
 -20.5190000  14.9850000  29.9210000 -20.1240000  15.5500000  30.9410000
 -20.7440000  15.6320000  28.7830000 -21.0510000  15.1210000  27.9650000
 -20.5450000  17.0730000  28.6750000 -19.5620000  17.3200000  29.0760000
 -20.5830000  17.5120000  27.2080000 -21.5810000  17.3130000  26.8130000
 -20.4040000  18.5870000  27.1530000 -19.5610000  16.7930000  26.3280000
 -18.5620000  17.1130000  26.6270000 -19.5990000  15.7210000  26.4900000
 -19.7280000  17.0900000  24.8460000 -19.6350000  18.2410000  24.4100000
 -19.9900000  16.0470000  24.0640000 -20.1160000  16.1750000  23.0700000
 -20.1180000  15.1330000  24.4780000 -21.5990000  17.8130000  29.4980000
 -21.3980000  18.9590000  29.9030000 -22.7170000  17.1390000  29.7540000
 -22.8390000  16.2080000  29.3800000 -23.7700000  17.6810000  30.6100000
 -23.8520000  18.7530000  30.4240000 -25.1070000  17.0550000  30.2700000
 -25.1530000  16.0200000  30.6050000 -25.9050000  17.6110000  30.7600000
 -25.2700000  17.0910000  29.1910000 -23.4480000  17.4710000  32.0890000
 -23.8250000  18.2720000  32.9340000 -22.7560000  16.3880000  32.4160000
 -22.4650000  15.7240000  31.7110000 -22.3310000  16.2080000  33.7960000
 -23.1660000  16.4170000  34.4650000 -21.8600000  14.7760000  34.0350000
 -21.0800000  14.5410000  33.3090000 -21.4280000  14.6900000  35.0330000
 -23.0150000  13.7820000  33.8820000 -23.6000000  14.0080000  32.9990000
 -22.5020000  12.3680000  33.7140000 -23.3300000  11.6580000  33.7270000
 -21.9890000  12.2790000  32.7580000 -21.7970000  12.1430000  34.5040000
 -23.9720000  13.8700000  35.0630000 -24.6520000  13.0160000  35.0710000
 -23.4170000  13.8670000  36.0040000 -24.5680000  14.7820000  34.9990000
 -21.2410000  17.2290000  34.0980000 -21.0290000  17.6180000  35.2430000
 -20.5700000  17.6800000  33.0480000 -20.7500000  17.2980000  32.1300000
 -19.6000000  18.7540000  33.1710000 -18.9500000  18.5470000  34.0230000
 -18.7180000  18.8170000  31.9180000 -19.3280000  18.9220000  31.0320000
 -18.1030000  19.7130000  31.9910000 -17.7940000  17.6110000  31.7390000
 -17.0760000  17.6050000  32.5520000 -18.3520000  16.6890000  31.8170000
 -16.8690000  17.6180000  30.1820000 -15.9020000  19.1120000  30.3740000
 -15.1920000  19.1890000  29.5510000 -16.5550000  19.9840000  30.3590000
 -15.3530000  19.0770000  31.3150000 -20.2870000  20.1070000  33.4270000
 -19.7790000  20.9050000  34.2130000 -21.4330000  20.3640000  32.7850000
 -21.7940000  19.6950000  32.1200000 -22.1850000  21.6140000  33.0010000
 -21.5320000  22.4520000  32.7480000 -23.4500000  21.6810000  32.1080000
 -23.6740000  22.7370000  31.9540000 -23.2440000  21.2410000  31.1310000
 -24.7120000  21.0320000  32.7280000 -24.7260000  20.0350000  32.5230000
 -24.8830000  21.2930000  33.7680000 -26.0370000  21.2690000  31.9900000
 -26.2330000  22.3420000  31.9880000 -25.9720000  20.9310000  30.9540000
 -27.1980000  20.5710000  32.7230000 -26.9210000  20.4190000  33.7670000
 -28.0580000  21.2410000  32.7000000 -27.6140000  19.2670000  32.1150000
 -26.8330000  18.6250000  32.1280000 -28.3820000  18.8690000  32.6370000
 -27.9120000  19.4090000  31.1600000 -22.5840000  21.7350000  34.4740000
 -22.6620000  22.8340000  35.0250000 -22.8230000  20.5870000  35.1020000
 -22.7080000  19.7220000  34.5950000 -23.3490000  20.5240000  36.4550000
 -24.0310000  21.3620000  36.6110000 -24.1310000  19.2150000  36.6810000
 -23.4750000  18.3710000  36.4590000 -24.5750000  19.0940000  38.1270000
 -25.1130000  18.1650000  38.2960000 -23.7170000  19.0570000  38.7980000
 -25.2090000  19.9390000  38.4000000 -25.3370000  19.1480000  35.7420000
 -25.9690000  20.0220000  35.9090000 -25.0080000  19.1810000  34.7190000
 -26.1900000  17.9050000  35.9160000 -26.9000000  17.8420000  35.0910000
 -25.5630000  17.0130000  35.9100000 -26.7590000  17.9530000  36.8430000
 -22.2260000  20.6370000  37.4760000 -22.3690000  21.3100000  38.4960000
 -21.1050000  19.9830000  37.1880000 -21.0390000  19.4420000  36.3380000
 -19.9230000  20.0770000  38.0350000 -20.1850000  19.7300000  39.0360000
 -18.8130000  19.1810000  37.4990000 -17.9330000  19.2770000  38.1340000
 -19.1360000  18.1420000  37.4780000 -18.5560000  19.4950000  36.4870000
 -19.4390000  21.5220000  38.1450000 -18.9890000  21.9540000  39.2050000
 -19.5370000  22.2670000  37.0480000 -19.8760000  21.8600000  36.1880000
 -19.1440000  23.6730000  37.0490000 -18.1380000  23.7600000  37.4610000
 -19.1400000  24.2450000  35.6230000 -20.0810000  23.9990000  35.1280000
 -19.0600000  25.3310000  35.6800000 -17.9690000  23.7370000  34.7820000
 -17.0040000  23.1900000  35.3560000 -18.0050000  23.8960000  33.5420000
 -20.0750000  24.4870000  37.9500000 -19.6800000  25.5160000  38.4980000
 -21.3060000  24.0090000  38.1060000 -21.5710000  23.1610000  37.6270000
 -22.3030000  24.6700000  38.9440000 -22.1940000  25.7500000  38.8360000
 -23.7160000  24.2840000  38.4970000 -23.8470000  23.2070000  38.4690000
 -24.4140000  24.6660000  39.2430000 -24.1410000  24.8620000  37.1560000
 -23.6060000  24.3660000  36.3730000 -25.2070000  24.6800000  37.0090000
 -23.8590000  26.3480000  37.0380000 -24.1750000  27.0950000  37.9920000
 -23.3260000  26.7670000  35.9870000 -22.1350000  24.3330000  40.4240000
 -22.0080000  25.2220000  41.2650000 -22.1270000  23.0410000  40.7290000
 -22.1830000  22.3590000  39.9890000 -22.2190000  22.5740000  42.1070000
 -22.7120000  23.3390000  42.7080000 -23.0790000  21.3110000  42.1590000
 -22.5160000  20.4960000  41.7010000 -23.2520000  21.0510000  43.2030000
 -24.4210000  21.4280000  41.4350000 -24.2540000  21.5940000  40.3720000
 -25.2050000  20.1360000  41.5540000 -26.1460000  20.2310000  41.0140000
 -24.6300000  19.3200000  41.1190000 -25.4100000  19.9130000  42.6010000
 -25.2260000  22.6000000  41.9740000 -25.2980000  22.5390000  43.0620000
 -24.7580000  23.5460000  41.6980000 -26.2310000  22.5920000  41.5480000
 -20.8680000  22.3000000  42.7680000 -20.7960000  22.1480000  43.9870000
 -19.8060000  22.2180000  41.9720000 -19.9060000  22.3360000  40.9730000
 -18.4690000  22.0590000  42.5210000 -17.8180000  22.7560000  41.9920000
 -18.4510000  22.3700000  43.5660000 -17.8280000  20.6830000  42.4100000
 -18.0930000  19.9250000  41.4720000 -16.9820000  20.3680000  43.3900000
 -16.8420000  21.0280000  44.1410000 -16.1270000  19.1810000  43.3600000
 -15.5990000  19.1680000  42.4090000 -15.0760000  19.2730000  44.4660000
 -14.5020000  18.3580000  44.4170000 -14.4300000  20.1310000  44.2800000
 -15.6610000  19.3830000  45.8640000 -16.2910000  20.2710000  45.9370000
 -16.2640000  18.5030000  46.0660000 -14.5960000  19.4510000  46.9400000
 -13.4360000  19.0750000  46.6610000 -14.9190000  19.8920000  48.0620000
 -16.8850000  17.8650000  43.5050000 -16.3820000  16.8030000  43.1290000
 -18.0860000  17.9300000  44.0660000 -18.4720000  18.8190000  44.3510000
 -18.8810000  16.7270000  44.2610000 -18.6600000  16.0670000  43.4500000
 -18.4940000  16.0140000  45.5830000 -17.4380000  15.7610000  45.5170000
 -18.6890000  16.9380000  46.7780000 -18.1550000  16.5310000  47.6340000
 -18.3030000  17.9370000  46.5930000 -19.7460000  17.0230000  47.0310000
 -19.2800000  14.7120000  45.7550000 -20.3400000  14.9350000  45.8550000
 -19.1610000  14.0910000  44.8700000 -18.8890000  13.9270000  46.9740000
 -19.3990000  12.9640000  46.9630000 -17.8140000  13.7510000  46.9780000
 -19.1710000  14.4610000  47.8810000 -20.3730000  17.0500000  44.2480000
 -20.7940000  18.1070000  44.7240000 -21.1650000  16.1520000  43.6650000
 -20.7650000  15.3310000  43.2340000 -22.6190000  16.2700000  43.7230000
 -22.8830000  16.6780000  44.6980000 -23.1340000  17.2530000  42.6530000
 -24.2080000  17.3830000  42.7890000 -22.6780000  18.2290000  42.8170000
 -22.8710000  16.8290000  41.2250000 -23.8590000  16.1940000  40.4840000
 -24.8120000  15.9680000  40.9400000 -23.6320000  15.8170000  39.1680000
 -24.4080000  15.3200000  38.6040000 -22.4150000  16.0810000  38.5770000
 -22.2340000  15.7840000  37.5540000 -21.4230000  16.7230000  39.3000000
 -20.4660000  16.9260000  38.8450000 -21.6560000  17.1000000  40.6150000
 -20.8750000  17.6050000  41.1650000 -23.3080000  14.9090000  43.5890000
 -22.7500000  13.9570000  43.0420000 -24.5240000  14.8350000  44.1170000
 -24.9260000  15.6590000  44.5440000 -25.3000000  13.6030000  44.1550000
 -24.6160000  12.7540000  44.2040000 -26.1770000  13.5790000  45.4160000
 -25.5660000  13.8400000  46.2810000 -26.9300000  14.3570000  45.3050000
 -26.8840000  12.2610000  45.7170000 -27.3330000  11.8530000  44.8110000
 -26.1380000  11.5500000  46.0750000 -27.9910000  12.4740000  46.7500000
 -27.7880000  13.3610000  47.3530000 -28.9360000  12.6310000  46.2300000
 -28.1340000  11.2850000  47.6900000 -29.0290000  11.4340000  48.2970000
 -28.2660000  10.3740000  47.1040000 -26.9520000  11.1500000  48.5880000
 -26.1290000  10.9490000  48.0390000 -26.8190000  12.0140000  49.0960000
 -27.1120000  10.4000000  49.2470000 -26.1630000  13.4770000  42.9030000
 -26.8290000  14.4290000  42.5030000 -26.1480000  12.3040000  42.2810000
 -25.5710000  11.5490000  42.6210000 -27.0160000  12.0580000  41.1380000
 -27.6570000  12.9180000  40.9530000 -26.1940000  11.8450000  39.8620000
 -25.4540000  12.6440000  39.7930000 -25.6500000  10.9060000  39.9310000
 -27.0180000  11.8560000  38.6030000 -27.6440000  10.7010000  38.1550000
 -27.5330000   9.7800000  38.7100000 -28.4080000  10.7080000  37.0030000
 -28.9090000   9.8050000  36.6790000 -28.5510000  11.8750000  36.2810000
 -29.1990000  11.8810000  35.4200000 -27.9300000  13.0340000  36.7120000
 -28.0590000  13.9530000  36.1610000 -27.1700000  13.0210000  37.8690000
 -26.6940000  13.9340000  38.1980000 -27.9140000  10.8500000  41.4040000
 -27.4350000   9.7240000  41.5430000 -29.2190000  11.0960000  41.4790000
 -29.5630000  12.0330000  41.3530000 -30.1870000  10.0280000  41.7020000
 -29.6730000   9.1150000  42.0000000 -31.1450000  10.3890000  42.8420000
 -31.6000000  11.3500000  42.6090000 -31.9290000   9.6330000  42.8950000
 -30.4930000  10.4830000  44.2110000 -30.0210000   9.5430000  44.4600000
 -29.7090000  11.2400000  44.1790000 -31.4790000  10.8670000  45.3010000
 -31.1530000  10.6790000  46.4940000 -32.5770000  11.3610000  44.9650000
 -30.9840000   9.7270000  40.4390000 -31.3160000  10.6230000  39.6640000
 -31.2750000   8.4500000  40.2420000 -30.9570000   7.7600000  40.9090000
 -32.1580000   8.0000000  39.1800000 -32.8250000   8.8030000  38.8640000
 -31.3570000   7.5230000  37.9710000 -31.8270000   6.6730000  37.4770000
 -31.2820000   8.3450000  37.2580000 -30.3520000   7.2670000  38.2690000
 -33.0110000   6.8840000  39.7780000 -32.7890000   6.5050000  40.9300000
 -34.0130000   6.3820000  39.0340000 -34.7110000   6.9790000  37.8780000
 -34.1100000   6.8560000  36.9770000 -34.9430000   8.0290000  38.0500000
 -35.9780000   6.1640000  37.7700000 -36.2770000   6.0320000  36.7300000
 -36.7730000   6.6690000  38.3210000 -35.6830000   4.8560000  38.4260000
 -35.1870000   4.2100000  37.7000000 -36.5910000   4.3770000  38.7920000
 -34.7440000   5.2290000  39.5730000 -35.3330000   5.5480000  40.4340000
 -33.8390000   4.0520000  39.9440000 -33.2450000   3.4190000  39.0720000
 -33.7310000   3.7850000  41.2430000 -34.2110000   4.3680000  41.9120000
 -32.9940000   2.6360000  41.7370000 -33.2420000   2.5110000  42.7910000
 -33.3320000   1.7450000  41.2060000 -31.4830000   2.7220000  41.6250000
 -30.8100000   1.6990000  41.4870000 -30.9480000   3.9380000  41.6850000
 -31.5430000   4.7520000  41.7570000 -29.5020000   4.1370000  41.6720000
 -29.0510000   3.3980000  42.3370000 -28.9350000   3.9100000  40.2630000
 -27.8490000   3.8660000  40.3580000 -29.2220000   2.9070000  39.9480000
 -29.2760000   4.8910000  39.1320000 -30.1680000   5.4340000  39.4340000
 -28.1480000   5.9050000  38.8750000 -28.3630000   6.5070000  37.9930000
 -28.0250000   6.5620000  39.7350000 -27.2100000   5.3810000  38.6890000
 -29.6510000   4.1480000  37.8500000 -29.9160000   4.8610000  37.0690000
 -28.8090000   3.5440000  37.5100000 -30.5090000   3.5000000  38.0350000
 -29.1270000   5.5280000  42.1750000 -29.7270000   6.5280000  41.7780000
 -28.1530000   5.5830000  43.0770000 -27.6990000   4.7330000  43.3810000
 -27.5390000   6.8520000  43.4480000 -27.9020000   7.6420000  42.7940000
 -27.8510000   7.2790000  44.9120000 -27.6040000   8.3370000  45.0100000
 -29.3300000   7.1130000  45.2190000 -29.5910000   7.6970000  46.1020000
 -29.9390000   7.4340000  44.3760000 -29.5570000   6.0640000  45.4150000
 -27.0020000   6.5080000  45.9080000 -27.3230000   6.7470000  46.9220000
 -27.1100000   5.4330000  45.7530000 -25.9570000   6.7880000  45.8180000
 -26.0360000   6.7270000  43.2460000 -25.4620000   5.6410000  43.3770000
 -25.4070000   7.8410000  42.8970000 -25.9280000   8.6950000  42.7550000
 -23.9750000   7.8630000  42.6530000 -23.4810000   7.1940000  43.3580000
 -23.6350000   7.3900000  41.2200000 -23.8870000   6.3330000  41.1270000
 -24.4250000   8.1800000  40.1850000 -24.1640000   7.8220000  39.1890000
 -25.4980000   8.0430000  40.3170000 -24.1730000   9.2370000  40.2460000
 -22.2340000   7.5530000  40.9770000 -21.9620000   6.8790000  40.3500000
 -23.4620000   9.2740000  42.8920000 -24.2160000  10.2360000  42.7660000
 -22.1910000   9.3920000  43.2650000 -21.6100000   8.5670000  43.3390000
 -21.5940000  10.6950000  43.5460000 -22.3640000  11.4660000  43.5390000
 -20.9370000  10.7260000  44.9320000 -19.8660000  10.5500000  44.8240000
 -21.0500000  11.7270000  45.3500000 -21.4450000   9.6950000  45.9330000
 -21.3040000   8.6870000  45.5810000 -20.8450000   9.8020000  46.8380000
 -22.8940000   9.9310000  46.3030000 -23.0300000  10.9880000  46.5250000
 -23.5500000   9.6860000  45.4710000 -23.3080000   9.1710000  47.4800000
 -23.3770000   9.6680000  48.3550000 -23.5530000   7.8640000  47.4850000
 -23.4060000   7.1460000  46.3790000 -23.0350000   7.5720000  45.5440000
 -23.6080000   6.1580000  46.3930000 -23.9380000   7.2730000  48.6060000
 -24.0680000   6.2710000  48.6400000 -23.9570000   7.7740000  49.4810000
 -20.5560000  11.0300000  42.4850000 -19.6200000  10.2630000  42.2620000
 -20.7180000  12.1760000  41.8340000 -21.4950000  12.7830000  42.0540000
 -19.7740000  12.5900000  40.8040000 -19.3030000  11.7130000  40.3600000
 -20.5020000  13.3180000  39.6700000 -21.2600000  13.9770000  40.0940000
 -19.7850000  13.9440000  39.1360000 -21.1400000  12.3830000  38.6650000
 -22.4570000  11.9590000  38.8110000 -23.0340000  12.2980000  39.6590000
 -23.0400000  11.0970000  37.8910000 -24.0660000  10.7810000  38.0120000
 -22.3030000  10.6490000  36.8120000 -22.8700000   9.7920000  35.8920000
 -22.3000000   9.6170000  35.1430000 -20.9960000  11.0560000  36.6480000
 -20.4150000  10.7070000  35.8070000 -20.4220000  11.9170000  37.5710000
 -19.3940000  12.2230000  37.4410000 -18.6730000  13.4700000  41.3940000
 -18.9450000  14.5310000  41.9570000 -17.4300000  13.0080000  41.2620000
 -17.2710000  12.1400000  40.7750000 -16.2660000  13.7220000  41.7730000
 -16.5830000  14.4280000  42.5380000 -15.2810000  12.7460000  42.4170000
 -14.8350000  12.1400000  41.6260000 -14.4810000  13.3290000  42.8770000
 -15.8640000  11.7980000  43.4620000 -16.6170000  11.1590000  42.9980000
 -14.7800000  10.8950000  44.0180000 -15.1820000  10.3360000  44.8560000
 -14.4370000  10.2060000  43.2460000 -13.9370000  11.4900000  44.3730000
 -16.5300000  12.5850000  44.5680000 -16.9010000  11.9060000  45.3360000
 -15.8180000  13.2780000  45.0140000 -17.3720000  13.1380000  44.1660000
 -15.5720000  14.5010000  40.6610000 -15.5400000  14.0600000  39.5140000
 -15.0020000  15.6500000  41.0110000 -15.0790000  15.9780000  41.9630000
 -14.4230000  16.5450000  40.0170000 -14.2160000  15.9980000  39.0970000
 -15.4120000  17.6660000  39.6800000 -15.6200000  18.2380000  40.5800000
 -14.9790000  18.3410000  38.9470000 -16.6360000  17.1470000  39.1910000
 -17.2810000  17.8600000  39.1870000 -13.0990000  17.1620000  40.4570000
 -12.3950000  17.7620000  39.6430000 -12.7630000  17.0340000  41.7390000
 -13.3550000  16.5260000  42.3790000 -11.5420000  17.6530000  42.2600000
 -11.1600000  18.3850000  41.5480000 -11.8260000  18.4210000  43.5520000
 -10.9190000  18.9370000  43.8700000 -12.5920000  19.1680000  43.3560000
 -12.2450000  17.5530000  44.5890000 -12.6050000  18.0910000  45.3030000
 -10.4530000  16.6230000  42.5040000 -10.7420000  15.4670000  42.8000000
  -9.2010000  17.0500000  42.3760000  -9.0210000  18.0070000  42.1120000
  -8.0620000  16.1760000  42.6360000  -8.1790000  15.2700000  42.0410000
  -6.7560000  16.8600000  42.2330000  -6.8950000  17.2080000  41.2080000
  -6.5830000  17.7510000  42.8380000  -5.5380000  15.9450000  42.2140000
  -5.8210000  14.9430000  41.8890000  -4.8430000  16.3600000  41.4910000
  -4.8110000  15.8810000  43.5480000  -5.1390000  16.6070000  44.4900000
  -3.8060000  15.0120000  43.6290000  -3.5870000  14.4190000  42.8400000
  -3.2750000  14.9360000  44.4790000  -8.0300000  15.7850000  44.1070000
  -7.6000000  14.6880000  44.4590000  -8.4950000  16.6980000  44.9550000
  -8.8240000  17.5800000  44.5880000  -8.5520000  16.4830000  46.3950000
  -7.5290000  16.4000000  46.7640000  -9.2210000  17.6780000  47.0740000
  -8.7480000  18.5860000  46.6950000 -10.2730000  17.7170000  46.7870000
  -9.0980000  17.6930000  48.5790000  -9.5290000  16.7850000  49.0050000
  -8.0410000  17.7340000  48.8460000  -9.7950000  18.9050000  49.1600000
  -9.4900000  19.0290000  50.1990000  -9.4700000  19.7960000  48.6210000
 -11.2470000  18.8040000  49.0610000 -11.6920000  19.1530000  48.2210000
 -12.0200000  18.2810000  50.0080000 -11.4760000  17.8100000  51.1230000
 -10.4780000  17.8440000  51.2490000 -12.0690000  17.4400000  51.8530000
 -13.3360000  18.2270000  49.8430000 -13.7510000  18.6310000  49.0120000
 -13.9360000  17.9440000  50.6050000  -9.2970000  15.2010000  46.7450000
  -8.7380000  14.2970000  47.3670000 -10.5580000  15.1310000  46.3260000
 -10.9540000  15.9010000  45.8040000 -11.4150000  13.9810000  46.5940000
 -11.3210000  13.7150000  47.6460000 -12.8730000  14.3330000  46.2940000
 -12.9340000  14.6750000  45.2590000 -13.4600000  13.4150000  46.3590000
 -13.5410000  15.3770000  47.1890000 -12.9830000  16.3110000  47.1200000
 -14.9640000  15.6430000  46.7300000 -15.4000000  16.4410000  47.3320000
 -14.9640000  15.9550000  45.6850000 -15.5670000  14.7430000  46.8430000
 -13.5230000  14.9170000  48.6310000 -14.0720000  15.6280000  49.2470000
 -14.0060000  13.9470000  48.7210000 -12.5020000  14.8630000  49.0050000
 -11.0180000  12.7380000  45.7940000 -11.1020000  11.6120000  46.2910000
 -10.5930000  12.9430000  44.5530000 -10.5550000  13.8830000  44.1810000
 -10.2680000  11.8320000  43.6670000 -11.0790000  11.1040000  43.7150000
 -10.1490000  12.3180000  42.2030000  -9.5270000  13.2120000  42.1770000
  -9.4860000  11.2700000  41.3290000  -9.3620000  11.6060000  40.3070000
  -8.4710000  11.0680000  41.6680000 -10.0630000  10.3440000  41.3390000
 -11.5480000  12.6530000  41.6690000 -12.1420000  11.7380000  41.6840000
 -12.0510000  13.3620000  42.3240000 -11.5820000  13.1940000  40.2630000
 -12.6080000  13.1350000  39.8990000 -11.3250000  14.2500000  40.2850000
 -10.9510000  12.6680000  39.5630000  -8.9910000  11.1200000  44.1200000
  -8.8830000   9.8960000  44.0060000  -8.0410000  11.8830000  44.6570000
  -8.1810000  12.8810000  44.7230000  -6.8370000  11.3070000  45.2600000
  -6.2880000  10.8080000  44.4680000  -5.9550000  12.4090000  45.8610000
  -5.5090000  12.9580000  45.0300000  -6.5940000  13.0900000  46.4230000
  -4.8530000  11.9140000  46.7930000  -5.2820000  11.6640000  47.7640000
  -4.3830000  11.0240000  46.3770000  -3.7720000  12.9710000  46.9770000
  -3.0820000  12.6500000  47.7580000  -3.2200000  13.0690000  46.0410000
  -4.3710000  14.3230000  47.3420000  -5.1400000  14.6000000  46.6190000
  -4.8370000  14.2390000  48.3250000  -3.3450000  15.4070000  47.3710000
  -3.4740000  15.9730000  48.1980000  -2.4180000  15.0050000  47.3840000
  -3.4480000  15.9930000  46.5530000  -7.1950000  10.2750000  46.3300000
  -6.5620000   9.2210000  46.4240000  -8.2180000  10.5790000  47.1250000
  -8.7010000  11.4590000  47.0110000  -8.7150000   9.6390000  48.1260000
  -7.8710000   9.2440000  48.6940000  -9.6680000  10.3300000  49.1050000
 -10.4040000  10.9200000  48.5680000 -10.1850000   9.5290000  49.6310000
  -9.0060000  11.2240000  50.1450000  -8.1420000  10.7040000  50.5610000
  -8.6580000  12.1380000  49.6610000  -9.9430000  11.5710000  51.2910000
 -10.8960000  10.8000000  51.5390000  -9.7350000  12.6220000  51.9360000
  -9.4290000   8.4550000  47.4830000  -9.3210000   7.3260000  47.9570000
 -10.1610000   8.7180000  46.4050000 -10.2270000   9.6650000  46.0590000
 -10.9630000   7.6830000  45.7590000 -11.5940000   7.2230000  46.5190000
 -11.8820000   8.3040000  44.7120000 -12.5920000   7.5570000  44.3610000
 -12.4380000   9.1320000  45.1540000 -11.2990000   8.6700000  43.8660000
 -10.1000000   6.5920000  45.1280000 -10.5620000   5.4700000  44.9260000
  -8.8450000   6.9160000  44.8290000  -8.5080000   7.8480000  45.0210000
  -7.9550000   5.9690000  44.1610000  -8.5480000   5.2910000  43.5460000
  -6.9950000   6.7110000  43.2340000  -6.4700000   7.4520000  43.8330000
  -6.2550000   6.0270000  42.8370000  -7.8260000   7.5710000  41.8880000
  -8.4880000   8.4320000  42.6690000  -7.1710000   5.1120000  45.1510000
  -6.3140000   4.3200000  44.7550000  -7.4660000   5.2870000  46.4370000
  -8.1720000   5.9610000  46.6980000  -6.9500000   4.4150000  47.4890000
  -5.8720000   4.3050000  47.3630000  -7.2060000   5.0350000  48.8670000
  -6.8390000   6.0630000  48.8530000  -8.2760000   5.0670000  49.0740000
  -6.4980000   4.3000000  49.9990000  -6.0940000   3.1310000  49.8210000
  -6.3660000   4.9010000  51.0870000  -7.6200000   3.0490000  47.3790000
  -8.7630000   2.8780000  47.8030000  -6.9040000   2.0800000  46.8170000
  -5.9720000   2.2800000  46.4840000  -7.4660000   0.7570000  46.5520000
  -8.3250000   0.8870000  45.8980000  -6.4450000  -0.1050000  45.8100000
  -5.5930000  -0.3080000  46.4610000  -6.9170000  -1.0570000  45.5630000
  -5.9400000   0.5150000  44.5250000  -6.7860000   0.9300000  43.9740000
  -5.2570000   1.3340000  44.7590000  -5.2410000  -0.4900000  43.6360000
  -5.9440000  -1.2380000  42.9250000  -3.9920000  -0.5320000  43.6470000
  -7.9300000   0.0250000  47.8140000  -8.7580000  -0.8870000  47.7380000
  -7.3990000   0.4220000  48.9680000  -6.7430000   1.1930000  48.9830000
  -7.7710000  -0.2080000  50.2330000  -7.8390000  -1.2860000  50.0820000
  -6.7080000   0.0430000  51.3060000  -6.9370000  -0.5670000  52.1800000
  -5.7260000  -0.2420000  50.9260000  -6.6890000   1.4050000  51.6980000
  -6.3440000   1.9530000  50.9740000  -9.1270000   0.2970000  50.7160000
  -9.8310000  -0.3990000  51.4460000  -9.4890000   1.5070000  50.3020000
  -8.8780000   2.0410000  49.6990000 -10.7720000   2.0860000  50.6800000
 -11.1430000   1.6090000  51.5880000 -10.6210000   3.5770000  50.9830000
 -10.2790000   4.0780000  50.0790000 -11.6060000   3.9680000  51.2430000
  -9.6400000   3.8970000  52.0960000  -9.9730000   3.4330000  53.0250000
  -8.6550000   3.5030000  51.8470000  -9.5160000   5.3970000  52.2890000
  -8.7530000   5.5900000  53.0450000  -9.1920000   5.8440000  51.3480000
 -10.7740000   5.9980000  52.7180000 -11.5160000   5.3770000  53.0050000
 -10.9960000   7.3080000  52.7570000 -10.0440000   8.1540000  52.3780000
  -9.1560000   7.8010000  52.0560000 -10.2380000   9.1470000  52.3600000
 -12.1700000   7.7750000  53.1670000 -12.9450000   7.1540000  53.3070000
 -12.2960000   8.7730000  53.1540000 -11.8260000   1.8870000  49.5930000
 -13.0030000   1.6700000  49.8890000 -11.3990000   1.9620000  48.3360000
 -10.4210000   2.1150000  48.1390000 -12.3320000   1.9170000  47.2140000
 -13.3210000   1.6330000  47.5680000 -12.4610000   3.3050000  46.5870000
 -11.4890000   3.5770000  46.1830000 -13.1690000   3.2560000  45.7600000
 -12.9150000   4.3650000  47.5540000 -14.2640000   4.5660000  47.8010000
 -14.9960000   3.9550000  47.2930000 -14.6900000   5.5400000  48.6890000
 -15.7450000   5.6740000  48.8700000 -13.7640000   6.3250000  49.3440000
 -14.0950000   7.0560000  50.0670000 -12.4130000   6.1360000  49.1090000
 -11.6810000   6.7430000  49.6210000 -11.9940000   5.1590000  48.2180000
 -10.9370000   5.0250000  48.0320000 -11.9190000   0.8970000  46.1580000
 -10.7360000   0.7280000  45.8650000 -12.9130000   0.2190000  45.5970000
 -13.8680000   0.4100000  45.8660000 -12.6880000  -0.8140000  44.5920000
 -11.6250000  -0.9040000  44.3670000 -13.1780000  -2.1760000  45.1160000
 -12.6690000  -2.3900000  46.0570000 -14.2390000  -2.0990000  45.3180000
 -12.8950000  -3.3310000  44.1590000 -13.4640000  -4.4240000  44.3730000
 -12.1160000  -3.1560000  43.1980000 -13.4100000  -0.3960000  43.3120000
 -14.2450000   0.5120000  43.3410000 -13.0800000  -1.0290000  42.1890000
 -12.3570000  -1.7310000  42.1900000 -13.7330000  -0.6950000  40.9270000
 -13.6640000   0.3760000  40.7680000 -13.0510000  -1.3820000  39.7410000
 -12.0970000  -0.8890000  39.5510000 -12.8600000  -2.4260000  39.9910000
 -13.9160000  -1.3380000  38.4870000 -14.7810000  -1.9920000  38.6120000
 -14.2660000  -0.3150000  38.3360000 -13.2040000  -1.7750000  37.2260000
 -12.3590000  -1.1120000  37.0370000 -12.8500000  -2.7720000  37.3780000
 -14.1740000  -1.7200000  36.0490000 -14.9760000  -2.4380000  36.2240000
 -14.6150000  -0.7230000  36.0130000 -13.5430000  -2.0080000  34.7270000
 -13.1750000  -2.9490000  34.7260000 -14.2340000  -1.9320000  33.9920000
 -12.7990000  -1.3470000  34.5510000 -15.2070000  -1.0740000  40.9480000
 -15.5690000  -2.1910000  41.3200000 -16.0520000  -0.1330000  40.5470000
 -15.7020000   0.7720000  40.2670000 -17.4720000  -0.4030000  40.3970000
 -17.7230000  -1.3500000  40.8740000 -18.3040000   0.6790000  41.0830000
 -18.0520000   0.7090000  42.1350000 -18.0560000   1.6440000  40.6520000
 -19.7930000   0.4330000  40.9570000 -20.2600000  -0.6980000  41.0890000
 -20.5490000   1.4940000  40.6920000 -21.5530000   1.3900000  40.6420000
 -20.1280000   2.4070000  40.6000000 -17.8700000  -0.4960000  38.9310000
 -17.3680000   0.2490000  38.0870000 -18.7670000  -1.4280000  38.6330000
 -19.1330000  -2.0180000  39.3680000 -19.4360000  -1.4480000  37.3470000
 -18.7370000  -1.1640000  36.5600000 -19.9740000  -2.8440000  37.0320000
 -20.7420000  -3.0970000  37.7640000 -20.4620000  -2.7930000  36.0560000
 -18.9670000  -3.9960000  37.0070000 -18.6060000  -4.1660000  38.0220000
 -19.6450000  -5.2640000  36.5280000 -18.9740000  -6.1130000  36.6620000
 -20.5630000  -5.4330000  37.0870000 -19.8990000  -5.1780000  35.4710000
 -17.7690000  -3.6640000  36.1290000 -17.1100000  -4.5310000  36.0730000
 -18.0980000  -3.4040000  35.1230000 -17.2040000  -2.8360000  36.5560000
 -20.5720000  -0.4360000  37.3790000 -21.5780000  -0.6540000  38.0570000
 -20.4060000   0.6750000  36.6640000 -19.5510000   0.8160000  36.1480000
 -21.4700000   1.6700000  36.5270000 -21.8060000   1.9690000  37.5210000
 -20.9690000   2.9140000  35.7960000 -21.7450000   3.6800000  35.8070000
 -20.0910000   3.3040000  36.3040000 -20.6380000   2.6090000  34.4510000
 -20.2580000   3.3960000  34.0500000 -22.6370000   1.0530000  35.7740000
 -22.5150000  -0.0470000  35.2350000 -23.7670000   1.7480000  35.7280000
 -23.8500000   2.6380000  36.2000000 -24.9140000   1.2110000  35.0060000
 -25.1620000   0.2400000  35.4370000 -26.1390000   2.1220000  35.1390000
 -26.2510000   2.4290000  36.1800000 -25.9560000   3.0140000  34.5380000
 -27.4370000   1.4500000  34.6980000 -27.2790000   0.9230000  33.7610000
 -27.7270000   0.7130000  35.4480000 -28.5810000   2.4310000  34.4870000
 -28.3830000   3.6470000  34.4840000 -29.7850000   1.9020000  34.3000000
 -30.5740000   2.5190000  34.1750000 -29.9110000   0.9030000  34.3420000
 -24.5410000   1.0150000  33.5340000 -25.0150000   0.0820000  32.8880000
 -23.6720000   1.8860000  33.0220000 -23.3180000   2.6360000  33.5970000
 -23.1710000   1.7720000  31.6550000 -24.0200000   1.8330000  30.9720000
 -22.2240000   2.9210000  31.3330000 -21.3500000   2.9060000  31.9800000
 -21.8930000   2.8300000  30.2980000 -22.7440000   3.8720000  31.4500000
 -22.4710000   0.4370000  31.4340000 -22.8590000  -0.3340000  30.5580000
 -21.4410000   0.1650000  32.2300000 -21.1680000   0.8250000  32.9440000
 -20.6980000  -1.0840000  32.1060000 -20.3590000  -1.1720000  31.0800000
 -19.5110000  -1.0980000  33.0730000 -19.8400000  -0.7320000  34.0470000
 -19.2100000  -2.1380000  33.2100000 -18.2660000  -0.3250000  32.6380000
 -18.5080000   0.7390000  32.6220000 -17.1410000  -0.5430000  33.6340000
 -16.2690000   0.0400000  33.3370000 -17.4560000  -0.2190000  34.6260000
 -16.8690000  -1.5990000  33.6710000 -17.8320000  -0.7350000  31.2370000
 -16.9220000  -0.1900000  30.9810000 -17.5970000  -1.7890000  31.2050000
 -18.5650000  -0.4710000  30.4800000 -21.5750000  -2.3150000  32.3410000
 -21.3330000  -3.3680000  31.7490000 -22.5840000  -2.1850000  33.2020000
 -22.7310000  -1.3030000  33.6730000 -23.5240000  -3.2800000  33.4600000
 -22.9650000  -4.1620000  33.7770000 -24.5230000  -2.9060000  34.5640000
 -24.9840000  -1.9460000  34.3470000 -25.3160000  -3.6550000  34.5410000
 -23.9560000  -2.8840000  35.9870000 -23.3670000  -3.7890000  36.1410000
 -23.3050000  -2.0380000  36.1450000 -25.0830000  -2.8680000  37.0230000
 -25.7220000  -1.9980000  36.8610000 -25.6890000  -3.7650000  36.8880000
 -24.5740000  -2.8630000  38.4680000 -25.3880000  -3.1820000  39.1210000
 -23.7580000  -3.5810000  38.5620000 -24.1110000  -1.5190000  38.9230000
 -23.7710000  -1.5770000  39.8740000 -23.3600000  -1.1910000  38.3320000
 -24.8720000  -0.8550000  38.8940000 -24.2730000  -3.6440000  32.1800000
 -24.5970000  -4.8090000  31.9360000 -24.5420000  -2.6310000  31.3650000
 -24.2760000  -1.6920000  31.6260000 -25.1940000  -2.8290000  30.0790000
 -25.9320000  -3.6250000  30.1550000 -25.8420000  -1.5260000  29.6030000
 -25.1080000  -0.7230000  29.5880000 -26.1900000  -1.6710000  28.5790000
 -27.0310000  -1.1070000  30.4240000 -27.8230000  -2.0560000  31.0550000
 -27.6530000  -3.1170000  30.9840000 -28.9180000  -1.6780000  31.8130000
 -29.5390000  -2.4260000  32.2850000 -29.2320000  -0.3430000  31.9510000
 -30.1000000  -0.0560000  32.5240000 -28.4530000   0.6150000  31.3290000
 -28.7040000   1.6600000  31.4270000 -27.3560000   0.2310000  30.5700000
 -26.7430000   0.9900000  30.1040000 -24.2050000  -3.3470000  29.0410000
 -24.5340000  -4.2340000  28.2530000 -22.9900000  -2.8020000  29.0480000
 -22.7770000  -2.0650000  29.7050000 -21.9500000  -3.2230000  28.1060000
 -22.3290000  -3.0880000  27.0920000 -20.6650000  -2.3830000  28.2700000
 -20.2640000  -2.5530000  29.2690000 -19.6150000  -2.7920000  27.2490000
 -18.7730000  -2.1010000  27.2940000 -19.2350000  -3.7910000  27.4610000
 -20.0340000  -2.7720000  26.2420000 -20.9780000  -0.9100000  28.1290000
 -20.2830000  -0.3230000  28.7290000 -20.8560000  -0.6160000  27.0860000
 -21.9960000  -0.6460000  28.3830000 -21.6340000  -4.7010000  28.3090000
 -21.2270000  -5.4060000  27.3870000 -21.8550000  -5.1570000  29.5350000
 -22.1820000  -4.5200000  30.2480000 -21.6510000  -6.5450000  29.9230000
 -20.5990000  -6.7900000  29.7690000 -21.9750000  -6.6940000  31.4110000
 -21.5340000  -5.8550000  31.9460000 -23.0550000  -6.6570000  31.5350000
 -21.4800000  -7.9530000  32.0730000 -22.0040000  -8.8250000  31.6790000
 -20.4250000  -8.0220000  31.9050000 -21.6570000  -7.8440000  33.5780000
 -20.9390000  -7.1330000  33.9880000 -22.6560000  -7.4550000  33.7780000
 -21.5660000  -9.1430000  34.2350000 -22.4020000  -9.7070000  34.2610000
 -20.4560000  -9.6340000  34.7700000 -19.3330000  -8.9300000  34.7310000
 -19.3110000  -8.0510000  34.2430000 -18.4990000  -9.3170000  35.1460000
 -20.4690000 -10.8270000  35.3470000 -19.6170000 -11.2070000  35.7440000
 -21.3010000 -11.3950000  35.3330000 -22.4940000  -7.5050000  29.0700000
 -22.1670000  -8.6850000  28.9410000 -23.5710000  -6.9930000  28.4770000
 -23.8230000  -6.0280000  28.6300000 -24.3870000  -7.7850000  27.5560000
 -24.5750000  -8.7640000  27.9990000 -25.7370000  -7.1080000  27.2930000
 -25.5740000  -6.1200000  26.8620000 -26.2900000  -7.7020000  26.5640000
 -26.5950000  -6.9930000  28.5440000 -26.4220000  -7.8120000  29.4730000
 -27.4510000  -6.0790000  28.5920000 -23.6470000  -8.0030000  26.2340000
 -24.0090000  -8.8780000  25.4500000 -22.6130000  -7.1970000  26.0000000
 -22.4150000  -6.4670000  26.6610000 -21.7680000  -7.3210000  24.8150000
 -22.2940000  -7.8870000  24.0470000 -21.4100000  -5.9390000  24.2210000
 -20.7920000  -5.3940000  24.9330000 -20.5880000  -6.0960000  22.9460000
 -20.3380000  -5.1270000  22.5170000 -19.6440000  -6.5940000  23.1560000
 -21.1450000  -6.6760000  22.2090000 -22.6700000  -5.1110000  23.9680000
 -23.2790000  -5.5930000  23.2030000 -23.2580000  -5.0420000  24.8830000
 -22.3830000  -3.6970000  23.5460000 -23.3020000  -3.1140000  23.5940000
 -21.6540000  -3.2490000  24.2210000 -22.0090000  -3.6630000  22.5230000
 -20.4670000  -8.0500000  25.1290000 -20.0650000  -8.9680000  24.4110000
 -19.8150000  -7.6300000  26.2110000 -20.2090000  -6.8910000  26.7740000
 -18.4710000  -8.1010000  26.5320000 -18.0380000  -8.5860000  25.6560000
 -17.5820000  -6.9190000  26.8640000 -16.5690000  -7.2560000  27.0780000
 -17.5510000  -6.2370000  26.0130000 -17.9770000  -6.3860000  27.7300000
 -18.4210000  -9.1210000  27.6730000 -17.3390000  -9.5850000  28.0350000
 -19.5780000  -9.4690000  28.2320000 -20.4440000  -9.0690000  27.9000000
 -19.6430000 -10.4490000  29.3050000 -20.6680000 -10.5460000  29.6580000
 -19.3470000 -11.4150000  28.9070000 -18.7510000 -10.1180000  30.4880000
 -18.6570000  -8.9590000  30.9010000 -18.0900000 -11.1360000  31.0340000
 -18.1880000 -12.0730000  30.6620000 -17.1520000 -10.9280000  32.1330000
 -17.3810000  -9.9910000  32.6390000 -17.2730000 -12.0470000  33.1830000
 -16.5830000 -11.8560000  34.0060000 -18.2850000 -12.0290000  33.5890000
 -17.0130000 -13.4350000  32.6110000 -17.1330000 -13.6160000  31.3800000
 -16.6900000 -14.3500000  33.4000000 -15.7210000 -10.8280000  31.5980000
 -14.7890000 -11.4300000  32.1390000 -15.5600000 -10.0580000  30.5250000
 -16.3660000  -9.6310000  30.0900000 -14.2490000  -9.7620000  29.9820000
 -13.6880000 -10.6870000  29.8530000 -14.3640000  -9.2870000  29.0090000
 -13.5050000  -8.8280000  30.9140000 -14.0570000  -8.3830000  31.9190000
 -12.2580000  -8.5160000  30.5800000 -11.8540000  -8.9030000  29.7370000
 -11.3980000  -7.7460000  31.4760000 -11.2560000  -8.3450000  32.3750000
 -10.0460000  -7.4990000  30.8100000 -10.1800000  -7.4570000  29.7270000
  -9.6650000  -6.5220000  31.1150000  -8.9830000  -8.5430000  31.1470000
  -9.3470000  -9.5350000  30.8730000  -7.7210000  -8.2760000  30.3590000
  -6.9420000  -8.9860000  30.6370000  -7.9650000  -8.4040000  29.3100000
  -7.3640000  -7.2610000  30.5400000  -8.7000000  -8.5220000  32.6430000
  -8.9260000  -7.5480000  33.0800000  -9.3020000  -9.2860000  33.1400000
  -7.6510000  -8.7470000  32.8440000 -11.9880000  -6.4130000  31.9370000
 -11.7990000  -6.0180000  33.0850000 -12.7080000  -5.7320000  31.0500000
 -12.8510000  -6.1100000  30.1230000 -13.2180000  -4.3930000  31.3430000
 -12.4630000  -3.8560000  31.9180000 -13.4750000  -3.5940000  30.0440000
 -14.2620000  -4.0900000  29.4730000 -13.9280000  -2.1800000  30.3600000
 -13.9820000  -1.5950000  29.4400000 -14.9250000  -2.1820000  30.8020000
 -13.2260000  -1.6980000  31.0430000 -12.2300000  -3.5610000  29.1870000
 -12.4490000  -3.0660000  28.2400000 -11.4420000  -3.0080000  29.7000000
 -11.8620000  -4.5590000  28.9720000 -14.5070000  -4.4230000  32.1620000
 -14.7170000  -3.5800000  33.0330000 -15.3640000  -5.4020000  31.8860000
 -15.1400000  -6.0900000  31.1800000 -16.7130000  -5.4200000  32.4500000
 -16.9290000  -4.4620000  32.9220000 -17.7660000  -5.6260000  31.3380000
 -18.7230000  -5.9580000  31.7390000 -18.0290000  -4.3240000  30.6010000
 -18.6420000  -4.5260000  29.7230000 -18.5890000  -3.6660000  31.2610000
 -17.0950000  -3.8590000  30.2850000 -17.2900000  -6.6020000  30.4040000
 -17.7520000  -7.4330000  30.5680000 -16.9500000  -6.4820000  33.5300000
 -18.0950000  -6.8160000  33.8260000 -15.8810000  -7.0050000  34.1210000
 -14.9530000  -6.7480000  33.8160000 -16.0190000  -7.9670000  35.2150000
 -17.0490000  -8.2800000  35.3330000 -15.2090000  -9.2330000  34.9330000
 -15.3340000  -9.9330000  35.7610000 -15.5730000  -9.6980000  34.0230000
 -13.8330000  -8.9320000  34.7830000 -13.6740000  -8.7570000  33.8500000
 -15.5850000  -7.3510000  36.5420000 -14.7070000  -6.4910000  36.5720000
 -16.2070000  -7.7930000  37.6330000 -16.8990000  -8.5270000  37.5550000
 -15.8620000  -7.3130000  38.9730000 -15.8910000  -6.2230000  38.9690000
 -16.8760000  -7.8080000  40.0060000 -16.8900000  -8.8870000  40.0490000
 -16.5610000  -7.4620000  40.9910000 -18.2620000  -7.3240000  39.7840000
 -19.2460000  -7.9470000  39.0730000 -19.1530000  -8.9020000  38.5880000
 -20.3960000  -7.1930000  39.0940000 -21.2600000  -7.4640000  38.6480000
 -20.1700000  -6.0600000  39.8320000 -21.0240000  -5.0020000  40.1370000
 -22.0460000  -4.9900000  39.7900000 -20.5190000  -3.9860000  40.9040000
 -21.1590000  -3.1570000  41.1710000 -19.1960000  -4.0050000  41.3680000
 -18.8340000  -3.1840000  41.9710000 -18.3470000  -5.0570000  41.0670000
 -17.3350000  -5.0700000  41.4420000 -18.8350000  -6.1090000  40.2830000
 -14.4690000  -7.7590000  39.3930000 -13.9760000  -8.7910000  38.9370000
 -13.8470000  -6.9900000  40.2810000 -14.2900000  -6.1530000  40.6310000
 -12.5440000  -7.3590000  40.8160000 -11.8610000  -7.4910000  39.9740000
 -11.9680000  -6.2610000  41.7370000 -12.5820000  -6.1810000  42.6340000
 -10.5330000  -6.5870000  42.1300000 -10.0900000  -5.7200000  42.6200000
 -10.5100000  -7.4140000  42.8390000  -9.9430000  -6.8390000  41.2480000
 -11.9800000  -5.0040000  41.0550000 -11.9670000  -4.3120000  41.7290000
 -12.5820000  -8.6750000  41.6050000 -11.6070000  -9.4170000  41.5990000
 -13.6770000  -8.9920000  42.2860000 -14.4830000  -8.3850000  42.3120000
 -13.6330000 -10.1990000  43.1140000 -12.6050000 -10.4890000  43.3280000
 -14.2670000  -9.9390000  44.4780000 -15.2920000  -9.5910000  44.3390000
 -14.3000000 -10.8750000  45.0370000 -13.5120000  -8.9370000  45.2990000
 -12.1480000  -9.0140000  45.4960000 -11.7550000  -7.9960000  46.2410000
 -10.7370000  -7.7910000  46.5420000 -12.8120000  -7.2590000  46.5300000
 -12.8040000  -6.3910000  47.0460000 -13.9230000  -7.8230000  45.9480000
 -14.9320000  -7.4380000  45.9840000 -14.2650000 -11.3980000  42.4100000
 -13.9470000 -12.5410000  42.7300000 -15.1410000 -11.1280000  41.4460000
 -15.3880000 -10.1670000  41.2640000 -15.4640000 -12.0910000  40.3920000
 -15.7600000 -13.0360000  40.8500000 -16.6390000 -11.5800000  39.5420000
 -17.5170000 -11.4220000  40.1690000 -16.3230000 -10.6320000  39.1200000
 -17.0030000 -12.4800000  38.3720000 -16.1190000 -12.8470000  37.8540000
 -17.5360000 -13.3500000  38.7600000 -17.8730000 -11.7820000  37.3260000
 -18.0350000 -10.5380000  37.3780000 -18.4040000 -12.4920000  36.4450000
 -14.2520000 -12.3330000  39.4920000 -14.0430000 -11.5610000  38.5450000
 -13.4400000 -13.3620000  39.7660000 -13.6110000 -13.9760000  40.5500000
 -12.2090000 -13.4980000  38.9600000 -12.1080000 -12.6140000  38.3600000
 -10.9420000 -13.4040000  39.8270000 -10.0940000 -13.7450000  39.2430000
 -10.7880000 -12.3260000  39.8930000 -10.8510000 -14.0530000  41.1730000
 -11.8360000 -14.2320000  41.6030000 -10.2780000 -14.9800000  41.1310000
 -10.1150000 -12.9670000  42.0040000  -9.0920000 -12.9140000  41.6370000
 -10.5940000 -11.9940000  41.8760000 -10.0710000 -13.1610000  43.4610000
 -11.0520000 -12.9630000  43.8980000  -9.7580000 -14.1820000  43.6890000
  -9.0420000 -12.1820000  43.9660000  -8.1530000 -12.3660000  43.5240000
  -9.3400000 -11.2400000  43.7520000  -8.9420000 -12.2860000  44.9660000
 -12.0560000 -14.6690000  38.0060000 -11.2450000 -15.5710000  38.2040000
 -12.8670000 -14.5700000  36.9560000 -13.6230000 -13.9040000  37.0330000
 -12.4650000 -14.8560000  35.6000000 -11.8400000 -15.7490000  35.5910000
 -13.6860000 -15.0250000  34.6920000 -14.5910000 -15.0640000  35.3010000
 -13.7900000 -14.1620000  34.0330000 -13.6500000 -16.2920000  33.8280000
 -12.5980000 -16.8500000  33.5430000 -14.8370000 -16.7510000  33.4160000
 -14.8880000 -17.5810000  32.8450000 -15.6760000 -16.2180000  33.6140000
 -11.6170000 -13.6150000  35.2130000 -10.9780000 -13.5930000  34.1550000
 -11.6310000 -12.5830000  36.0790000 -12.2830000 -12.6050000  36.8460000
 -10.8030000 -11.3650000  35.9420000 -10.8870000 -11.0090000  34.9140000
 -11.2820000 -10.2310000  36.8740000 -12.3090000  -9.9750000  36.6200000
 -11.2870000 -10.5680000  37.9100000 -10.4170000  -8.9640000  36.7790000
 -10.5010000  -8.0090000  35.8150000 -11.2100000  -8.0280000  34.9990000
  -9.5660000  -7.0280000  36.0270000  -9.4190000  -6.2480000  35.4040000
  -8.8430000  -7.3330000  37.1490000  -7.7890000  -6.6440000  37.7550000
  -7.3390000  -5.7940000  37.2680000  -7.2450000  -7.1840000  38.8880000
  -6.4200000  -6.6810000  39.3690000  -7.7170000  -8.3860000  39.4200000
  -7.2990000  -8.7460000  40.3450000  -8.7630000  -9.0790000  38.8130000
  -9.1830000  -9.9570000  39.2710000  -9.3440000  -8.5470000  37.6560000
  -9.3270000 -11.6150000  36.2360000  -8.4870000 -11.5310000  35.3390000
  -9.0190000 -11.9030000  37.5010000  -9.7530000 -11.9430000  38.1920000
  -7.6370000 -12.1180000  37.9370000  -7.0790000 -11.2050000  37.7400000
  -7.5740000 -12.4260000  39.4350000  -8.1200000 -11.6720000  39.9970000
  -8.0450000 -13.3910000  39.6070000  -6.1670000 -12.5420000  40.0130000
  -6.2690000 -12.9010000  41.0380000  -5.5860000 -13.2770000  39.4610000
  -5.4490000 -11.1980000  40.0160000  -5.2350000 -10.8920000  38.9920000
  -6.0800000 -10.4550000  40.4910000  -4.1360000 -11.2580000  40.7870000
  -3.5050000 -12.0390000  40.3560000  -3.6220000 -10.3020000  40.6800000
  -4.3510000 -11.5400000  42.2360000  -3.4550000 -11.5660000  42.7040000
  -4.9320000 -10.8270000  42.6490000  -4.7710000 -12.4550000  42.3330000
  -7.0270000 -13.2490000  37.1410000  -5.8520000 -13.2160000  36.7880000
  -7.8550000 -14.2450000  36.8620000  -8.7970000 -14.2240000  37.2230000
  -7.4920000 -15.3490000  35.9960000  -6.6720000 -15.8960000  36.4660000
  -8.6860000 -16.2880000  35.8470000  -9.1110000 -16.4420000  36.8400000
  -9.4470000 -15.8070000  35.2310000  -8.3730000 -17.6440000  35.2830000
  -7.9390000 -17.5450000  34.2870000  -7.6670000 -18.1520000  35.9390000
  -9.6500000 -18.4560000  35.2070000 -10.1060000 -18.5240000  36.1960000
 -10.3450000 -17.9560000  34.5310000  -9.3920000 -19.8520000  34.6930000
  -8.8290000 -19.7880000  33.7620000  -8.7970000 -20.3780000  35.4330000
 -10.6670000 -20.5840000  34.4600000 -11.2520000 -20.0740000  33.8130000
 -10.4610000 -21.4940000  34.0710000 -11.1500000 -20.7090000  35.3400000
  -7.0220000 -14.8410000  34.6290000  -5.9490000 -15.2150000  34.1580000
  -7.8170000 -13.9730000  34.0060000  -8.6970000 -13.7000000  34.4200000
  -7.4800000 -13.4340000  32.6880000  -7.1190000 -14.2500000  32.0620000
  -8.7190000 -12.8540000  32.0150000  -8.4610000 -12.5050000  31.0150000
  -9.5000000 -13.6080000  31.9320000  -9.0990000 -12.0130000  32.5960000
  -6.3850000 -12.3760000  32.7740000  -5.5680000 -12.2480000  31.8660000
  -6.3840000 -11.6150000  33.8640000  -6.9980000 -11.8570000  34.6160000
  -5.3510000 -10.6180000  34.1170000  -5.3900000  -9.8710000  33.3230000
  -5.6110000  -9.9200000  35.4560000  -6.6030000  -9.4660000  35.4340000
  -5.5880000 -10.6580000  36.2520000  -4.6170000  -8.8530000  35.8000000
  -3.6990000  -8.3630000  34.8970000  -2.9610000  -7.4340000  35.4800000
  -2.1970000  -6.8380000  35.0030000  -3.3730000  -7.2980000  36.7270000
  -3.0080000  -6.6300000  37.3910000  -4.4080000  -8.1720000  36.9520000
  -4.9560000  -8.2970000  37.8730000  -3.9660000 -11.2650000  34.1020000
  -3.0700000 -10.8070000  33.3950000  -3.8020000 -12.3400000  34.8670000
  -4.5650000 -12.6730000  35.4390000  -2.5250000 -13.0450000  34.9350000
  -1.7490000 -12.3270000  35.2050000  -2.5730000 -14.1320000  36.0110000
  -3.3740000 -14.8340000  35.7720000  -1.6310000 -14.6810000  36.0090000
  -2.7890000 -13.5690000  37.4070000  -2.3730000 -12.4500000  37.7140000
  -3.4370000 -14.3510000  38.2640000  -3.5490000 -14.0630000  39.2230000
  -3.7530000 -15.2630000  37.9710000  -2.1360000 -13.6630000  33.5970000
  -0.9770000 -13.6150000  33.1940000  -3.1190000 -14.2370000  32.9140000
  -4.0510000 -14.2500000  33.3050000  -2.9040000 -14.8850000  31.6250000
  -2.1030000 -15.6180000  31.7390000  -4.1830000 -15.6300000  31.1750000
  -5.0390000 -14.9680000  31.3070000  -4.1130000 -16.0100000  29.7040000
  -5.0220000 -16.5130000  29.3800000  -4.0420000 -15.1430000  29.0690000
  -3.2580000 -16.6630000  29.5240000  -4.3890000 -16.8860000  32.0220000
  -3.5440000 -17.5560000  31.8590000  -4.3840000 -16.6460000  33.0800000
  -5.6510000 -17.6500000  31.6800000  -5.7830000 -18.4550000  32.4040000
  -6.5030000 -16.9770000  31.7620000  -5.5980000 -18.1030000  30.6920000
  -2.4760000 -13.9080000  30.5240000  -1.6170000 -14.2280000  29.6970000
  -3.0580000 -12.7130000  30.5290000  -3.7300000 -12.4850000  31.2480000
  -2.8920000 -11.7830000  29.4130000  -2.5490000 -12.3220000  28.5330000
  -4.2340000 -11.1220000  29.0940000  -4.5550000 -10.5360000  29.9570000
  -4.0840000 -10.4300000  28.2630000  -5.3470000 -12.1020000  28.7140000
  -5.5780000 -12.7540000  29.5490000  -6.6160000 -11.3590000  28.3410000
  -7.3920000 -12.0650000  28.0420000  -6.9710000 -10.7820000  29.1920000
  -6.3940000 -10.6960000  27.5080000  -4.9050000 -13.0140000  27.5830000
  -5.6700000 -13.7720000  27.4270000  -4.7900000 -12.4360000  26.6660000
  -3.9720000 -13.5280000  27.7730000  -1.8300000 -10.7000000  29.6270000
  -1.2680000 -10.1860000  28.6580000  -1.5540000 -10.3600000  30.8830000
  -2.0390000 -10.8150000  31.6440000  -0.5790000  -9.3130000  31.2120000
  -1.0120000  -8.3770000  30.8700000  -0.3900000  -9.2430000  32.7310000
  -1.3780000  -9.1790000  33.1730000   0.0770000 -10.1560000  33.0950000
   0.3710000  -8.0340000  33.2790000   1.3970000  -8.0550000  32.9100000
  -0.2710000  -6.7330000  32.8190000   0.1770000  -5.8880000  33.3430000
  -0.1040000  -6.5840000  31.7530000  -1.3430000  -6.7480000  33.0110000
   0.4330000  -8.0940000  34.7960000  -0.5480000  -8.2710000  35.2250000
   1.0810000  -8.9190000  35.0930000   0.8510000  -7.1700000  35.1970000
   0.8020000  -9.4460000  30.5290000   1.4360000  -8.4290000  30.2410000
   1.2850000 -10.6860000  30.2890000   0.9700000 -11.9520000  30.9840000
   0.0710000 -12.3980000  30.5630000   0.8730000 -11.8250000  32.0600000
   2.1520000 -12.8310000  30.6710000   1.8580000 -13.8790000  30.6020000
   2.9050000 -12.7090000  31.4520000   2.6910000 -12.3370000  29.3960000
   2.0970000 -12.7440000  28.5750000   3.7410000 -12.6050000  29.2710000
   2.5060000 -10.8220000  29.4820000   3.3440000 -10.3800000  30.0230000
   2.4200000 -10.2270000  28.0770000   3.4400000  -9.7720000  27.5590000
   1.2370000 -10.2320000  27.4670000   0.4270000 -10.6240000  27.9270000
   1.0860000  -9.7120000  26.1080000   1.8530000 -10.1640000  25.4770000
  -0.2780000 -10.0920000  25.5370000  -1.0630000  -9.7670000  26.2180000
  -0.4280000  -9.5930000  24.5810000  -0.3770000 -11.4870000  25.3230000
   0.1890000 -11.7220000  24.5840000   1.2690000  -8.1960000  26.0350000
   1.2900000  -7.6200000  24.9470000   1.3990000  -7.5540000  27.1910000
   1.3460000  -8.0600000  28.0640000   1.6500000  -6.1220000  27.2440000
   1.7790000  -5.7200000  26.2390000   0.4660000  -5.3980000  27.8830000
   0.3560000  -5.7340000  28.9160000   0.6670000  -4.3260000  27.9060000
  -0.8210000  -5.6210000  27.1510000  -1.1600000  -4.8290000  26.0660000
  -0.4970000  -4.0370000  25.7500000  -2.3340000  -5.0460000  25.3730000
  -2.5850000  -4.4250000  24.5260000  -3.1800000  -6.0660000  25.7560000
  -4.0740000  -6.2580000  25.1850000  -2.8500000  -6.8650000  26.8280000
  -3.4980000  -7.6820000  27.1120000  -1.6730000  -6.6450000  27.5180000
  -1.4260000  -7.2830000  28.3560000   2.9410000  -5.8370000  27.9910000
   3.2120000  -4.6980000  28.3800000   3.7350000  -6.8900000  28.1850000
   3.4470000  -7.7990000  27.8520000   5.1060000  -6.7480000  28.6660000
   5.0990000  -6.1850000  29.6000000   5.7550000  -8.1090000  28.9220000
   6.7390000  -7.9550000  29.3660000   5.1430000  -8.6830000  29.6190000
   5.9110000  -8.8390000  27.7150000   5.0520000  -9.2000000  27.4700000
   5.8860000  -5.9780000  27.6190000   5.5140000  -5.9720000  26.4460000
   6.9660000  -5.3260000  28.0220000   7.2550000  -5.3430000  28.9890000
   7.6590000  -4.4620000  27.0820000   6.9120000  -3.8820000  26.5380000
   8.5710000  -3.4870000  27.8230000   8.7760000  -3.8590000  28.8280000
   9.5240000  -3.3960000  27.2990000   7.9420000  -2.1040000  27.8930000
   7.8680000  -1.7330000  26.8710000   6.9370000  -2.1910000  28.3050000
   8.7140000  -1.1170000  28.7360000   9.2010000  -1.4480000  29.8160000
   8.8300000   0.1120000  28.2440000   9.3020000   0.8090000  28.8010000
   8.3000000   0.3590000  27.4220000   8.4280000  -5.2640000  26.0350000
   8.7330000  -4.7520000  24.9600000   8.7050000  -6.5300000  26.3250000
   8.4350000  -6.9250000  27.2140000   9.2900000  -7.4010000  25.3180000
  10.1340000  -6.8820000  24.8630000   9.7880000  -8.7080000  25.9380000
  10.3030000  -8.4910000  26.8750000   8.9230000  -9.3290000  26.1770000
  10.7350000  -9.5090000  25.0440000  10.7150000 -10.5420000  25.3940000
  10.3900000  -9.5170000  24.0110000  12.1760000  -9.0070000  25.0960000
  12.4390000  -7.8070000  24.9780000  13.1150000  -9.9310000  25.2730000
  12.8600000 -10.9020000  25.3680000  14.0830000  -9.6490000  25.3060000
   8.2520000  -7.6790000  24.2360000   8.5960000  -7.9340000  23.0800000
   6.9780000  -7.6140000  24.6200000   6.7500000  -7.4140000  25.5830000
   5.8760000  -7.8530000  23.6940000   6.1360000  -8.6970000  23.0530000
   4.6110000  -8.2250000  24.4550000   3.8660000  -8.5870000  23.7460000
   4.8230000  -9.0240000  25.1650000   4.1870000  -7.3680000  24.9720000
   5.6250000  -6.6360000  22.8110000   5.2660000  -6.7750000  21.6400000
   5.8190000  -5.4490000  23.3820000   6.0810000  -5.4090000  24.3570000
   5.6580000  -4.1910000  22.6540000   4.6450000  -4.1510000  22.2570000
   5.8830000  -2.9950000  23.5830000   6.8110000  -3.1510000  24.1320000
   6.0360000  -2.0920000  22.9960000   4.7780000  -2.7660000  24.5940000
   4.6800000  -3.6420000  25.2350000   5.0490000  -1.9140000  25.2160000
   3.1880000  -2.4310000  23.8140000   3.6480000  -1.1560000  22.6440000
   2.7580000  -0.7550000  22.1650000   4.1750000  -0.3510000  23.1560000
   4.2780000  -1.5740000  21.8600000   6.6090000  -4.0920000  21.4690000
   6.2600000  -3.5310000  20.4300000   7.8130000  -4.6300000  21.6360000
   8.0470000  -5.0720000  22.5150000   8.8100000  -4.6270000  20.5720000
   8.8660000  -3.6080000  20.1930000  10.1810000  -5.0480000  21.1230000
  10.4380000  -4.3790000  21.9460000  10.1090000  -6.0570000  21.5320000
  11.3260000  -5.0180000  20.1060000  12.2630000  -5.2080000  20.6310000
  11.1820000  -5.8120000  19.3730000  11.4060000  -3.6740000  19.3880000
  10.4760000  -3.4690000  18.8630000  11.5770000  -2.8780000  20.1140000
  12.5030000  -3.6470000  18.3240000  12.4010000  -4.5310000  17.6920000
  12.3600000  -2.7630000  17.7010000  13.8770000  -3.6050000  18.9070000
  14.0170000  -4.4110000  19.5020000  14.5630000  -3.6230000  18.1650000
  13.9900000  -2.7660000  19.4580000   8.3650000  -5.5460000  19.4280000
   8.7590000  -5.3620000  18.2780000   7.5240000  -6.5230000  19.7490000
   7.2190000  -6.6410000  20.7050000   7.0120000  -7.4390000  18.7490000
   7.8190000  -7.7690000  18.0930000   6.6050000  -8.3100000  19.2630000
   5.9080000  -6.8170000  17.9210000   5.7910000  -7.0810000  16.7230000
   5.1030000  -5.9760000  18.5630000   5.2320000  -5.8170000  19.5530000
   3.9520000  -5.3570000  17.9090000   3.4300000  -6.1120000  17.3230000
   2.9930000  -4.7760000  18.9520000   3.5220000  -4.0200000  19.5340000
   2.1700000  -4.2800000  18.4370000   2.4030000  -5.8010000  19.8900000
   2.0670000  -7.0730000  19.4410000   2.1930000  -7.3520000  18.4070000
   1.5300000  -8.0160000  20.3000000   1.2780000  -9.0030000  19.9410000
   1.3260000  -7.6900000  21.6270000   0.7920000  -8.6220000  22.4890000
   0.7960000  -8.3100000  23.4020000   1.6540000  -6.4340000  22.0940000
   1.4890000  -6.1510000  23.1190000   2.1890000  -5.5000000  21.2270000
   2.4210000  -4.5130000  21.5970000   4.3560000  -4.2610000  16.9320000
   3.7040000  -4.0710000  15.9080000   5.4320000  -3.5510000  17.2610000
   5.9210000  -3.7680000  18.1180000   5.8710000  -2.3740000  16.5110000
   5.1750000  -1.5630000  16.7270000   7.2530000  -1.9370000  16.9930000
   7.1730000  -1.7330000  18.0580000   7.9650000  -2.7520000  16.8570000
   7.7730000  -0.7200000  16.2960000   7.4940000   0.5600000  16.7250000
   8.0730000   1.4300000  15.9160000   7.9660000   2.4940000  15.9400000
   8.7120000   0.7590000  14.9730000   9.1840000   1.1760000  14.1800000
   8.5390000  -0.5860000  15.1860000   8.9200000  -1.3870000  14.5700000
   5.9140000  -2.5590000  14.9910000   5.4010000  -1.7220000  14.2490000
   6.5320000  -3.6430000  14.5310000   6.9190000  -4.3170000  15.1760000
   6.6460000  -3.9000000  13.1000000   7.1910000  -3.0780000  12.6330000
   7.4130000  -5.1850000  12.8490000   7.0990000  -5.6200000  11.9030000
   8.4860000  -4.9920000  12.8660000   7.1730000  -5.9150000  13.6240000
   5.2690000  -3.9690000  12.4550000   5.0700000  -3.4980000  11.3380000
   4.3180000  -4.5520000  13.1790000   4.5370000  -4.9160000  14.0950000
   2.9420000  -4.6710000  12.7070000   2.9430000  -4.9530000  11.6550000
   2.2110000  -5.7640000  13.4910000   2.3830000  -5.6380000  14.5560000
   1.1400000  -5.6730000  13.3260000   2.6360000  -7.1730000  13.0970000
   2.3680000  -7.3300000  12.0530000   3.7190000  -7.2640000  13.1880000
   1.8710000  -8.4770000  14.0820000   2.1490000  -9.9080000  13.0310000
   1.7250000 -10.7940000  13.5040000   1.6670000  -9.7510000  12.0660000
   3.2200000 -10.0520000  12.8850000   2.1930000  -3.3380000  12.8080000
   1.3030000  -3.0560000  12.0080000   2.5640000  -2.5210000  13.7890000
   3.2950000  -2.8040000  14.4270000   2.0030000  -1.1830000  13.9230000
   0.9140000  -1.2500000  13.8980000   2.4210000  -0.5530000  15.2520000
   3.4850000  -0.6780000  15.4310000   2.2210000   0.5120000  15.1700000
   1.6390000  -1.0230000  16.4530000   0.5780000  -0.9520000  16.2360000
   1.8960000  -2.0580000  16.6780000   2.0060000   0.0180000  17.8720000
   0.9730000  -0.7360000  19.1250000   1.0900000  -0.1970000  20.0640000
  -0.0700000  -0.7080000  18.8120000   1.2770000  -1.7730000  19.2680000
   2.4390000  -0.2780000  12.7740000   1.7290000   0.6520000  12.3970000
   3.6240000  -0.5400000  12.2380000   4.1880000  -1.2970000  12.6000000
   4.1410000   0.2490000  11.1290000   3.8980000   1.2970000  11.2960000
   5.6810000   0.1370000  11.0320000   5.9490000  -0.9150000  10.9200000
   6.2090000   0.9010000   9.8240000   7.2960000   0.8690000   9.8380000
   5.8850000   0.4290000   8.8960000   5.8740000   1.9390000   9.8480000
   6.3250000   0.6590000  12.3060000   6.3530000   1.7490000  12.2880000
   5.7870000   0.3810000  13.2050000   7.3470000   0.2860000  12.3770000
   3.4820000  -0.2010000   9.8230000   3.2620000   0.6050000   8.9200000
   3.1450000  -1.4850000   9.7430000   3.3590000  -2.1110000  10.5070000
   2.4630000  -2.0390000   8.5770000   3.1220000  -1.9260000   7.7230000
   2.1850000  -3.5330000   8.7810000   3.0870000  -4.0140000   9.1640000
   1.3970000  -3.6660000   9.5210000   1.7630000  -4.2320000   7.4980000
   0.6670000  -3.9300000   6.9850000   2.5200000  -5.0980000   7.0080000
   1.1550000  -1.3030000   8.2850000   0.8250000  -1.0410000   7.1290000
   0.4200000  -0.9750000   9.3440000   0.7430000  -1.2350000  10.2650000
  -0.8590000  -0.2790000   9.2310000  -1.3680000  -0.6210000   8.3290000
  -1.7680000  -0.5730000  10.4500000  -1.3310000  -0.1160000  11.3400000
  -3.1550000   0.0010000  10.2450000  -3.7920000  -0.2610000  11.0860000
  -3.1130000   1.0760000  10.1610000  -3.6060000  -0.3490000   9.3190000
  -1.8600000  -2.0780000  10.6920000  -0.8860000  -2.4990000  10.9240000
  -2.4870000  -2.2410000  11.5680000  -2.4670000  -2.8420000   9.5420000
  -1.7630000  -2.8780000   8.7100000  -2.6520000  -3.8670000   9.8640000
  -3.4020000  -2.4270000   9.1860000  -0.6440000   1.2260000   9.1070000
  -1.3730000   1.9150000   8.3930000   0.3660000   1.7280000   9.8100000
   0.9290000   1.1180000  10.3870000   0.7160000   3.1420000   9.7580000
  -0.1590000   3.7260000  10.0440000   1.8300000   3.4450000  10.7430000
   2.0230000   4.5170000  10.7510000   1.5280000   3.1490000  11.7470000
   2.7400000   2.9220000  10.4550000   1.1210000   3.5540000   8.3420000
   0.7510000   4.6280000   7.8740000   1.8790000   2.6960000   7.6640000
   2.1590000   1.8240000   8.0880000   2.2500000   2.9430000   6.2770000
   2.7590000   3.9060000   6.2150000   3.2050000   1.8500000   5.7360000
   2.8570000   0.8780000   6.0890000   3.2000000   1.8190000   4.2100000
   3.9930000   1.1560000   3.8630000   2.2580000   1.4210000   3.8320000
   3.3730000   2.8130000   3.8000000   4.6150000   2.0730000   6.2630000
   5.1060000   2.8750000   5.7070000   4.5950000   2.3450000   7.3200000
   5.1980000   1.1580000   6.1530000   0.9980000   3.0250000   5.4030000
   0.8800000   3.9170000   4.5610000   0.0550000   2.1110000   5.6240000
   0.1990000   1.4020000   6.3300000  -1.1930000   2.0950000   4.8610000
  -0.9440000   1.9450000   3.8090000  -2.0860000   0.9390000   5.3100000
  -2.3350000   1.0050000   6.3650000  -3.0170000   1.0590000   4.7550000
  -1.5020000  -0.4240000   5.0040000  -0.9700000  -0.4060000   4.0520000
  -0.8220000  -0.6660000   5.7740000  -2.5520000  -1.5040000   4.9420000
  -3.6970000  -1.2570000   4.5570000  -2.1740000  -2.7120000   5.3320000
  -1.2290000  -2.8620000   5.6630000  -2.8380000  -3.4690000   5.3000000
  -1.9630000   3.4030000   4.9690000  -2.5030000   3.8870000   3.9720000
  -2.0120000   3.9700000   6.1720000  -1.5630000   3.5180000   6.9570000
  -2.6790000   5.2530000   6.3880000  -3.7150000   5.1550000   6.0620000
  -2.6670000   5.6290000   7.8690000  -3.2630000   4.9070000   8.4280000
  -1.6430000   5.5600000   8.2340000  -3.1800000   7.0460000   8.1440000
  -2.6520000   7.7730000   7.5300000  -4.6690000   7.1470000   7.8310000
  -5.0490000   8.1070000   8.1660000  -4.8420000   7.0590000   6.7590000
  -5.2180000   6.3640000   8.3550000  -2.8980000   7.4640000   9.5790000
  -3.0950000   8.5290000   9.6910000  -3.5230000   6.8970000  10.2670000
  -1.8480000   7.2910000   9.8130000  -2.0270000   6.3690000   5.5860000
  -2.7030000   7.1090000   4.8720000  -0.7110000   6.4870000   5.7220000
  -0.2140000   5.8450000   6.3260000   0.0540000   7.5120000   5.0280000
  -0.3140000   8.4900000   5.3420000   1.5530000   7.4160000   5.3690000
   1.8990000   6.3950000   5.2050000   2.3640000   8.3340000   4.4750000
   3.3790000   8.4400000   4.8600000   2.4340000   7.9260000   3.4660000
   1.9220000   9.3210000   4.4200000   1.7810000   7.7600000   6.8270000
   2.8480000   7.7500000   7.0450000   1.3970000   8.7590000   7.0380000
   1.2830000   7.0490000   7.4820000  -0.1370000   7.4030000   3.5190000
  -0.3600000   8.4040000   2.8370000  -0.0700000   6.1800000   3.0080000
   0.1090000   5.3890000   3.6110000  -0.2140000   5.9520000   1.5800000
   0.4690000   6.6200000   1.0540000   0.1600000   4.5150000   1.2310000
  -0.2780000   3.8310000   1.9590000  -0.2600000   4.2800000   0.2540000
   1.6540000   4.2990000   1.1400000   2.0700000   5.0370000   0.4520000
   2.1090000   4.4620000   2.1170000   2.0160000   2.9150000   0.6590000
   1.3470000   1.9340000   0.9870000   3.0810000   2.8250000  -0.1250000
   3.3920000   1.9140000  -0.4250000   3.6160000   3.6520000  -0.3430000
  -1.6210000   6.2640000   1.0790000  -1.7950000   6.6150000  -0.0850000
  -2.6230000   6.1460000   1.9460000  -2.4480000   5.8520000   2.8980000
  -3.9860000   6.4980000   1.5510000  -4.2370000   5.9730000   0.6280000
  -5.0080000   6.1020000   2.6190000  -5.1360000   5.0190000   2.5820000
  -4.6550000   6.3640000   3.6120000  -6.3520000   6.7900000   2.4030000
  -6.3050000   7.8250000   2.7070000  -6.5900000   6.7540000   1.3380000
  -7.4950000   6.1290000   3.1350000  -7.5460000   5.0820000   2.8330000
  -7.3330000   6.1920000   4.2120000  -8.8080000   6.8090000   2.7710000
  -8.8000000   7.8250000   3.1690000  -8.8880000   6.8630000   1.6840000
  -9.9930000   6.0840000   3.3060000  -9.9380000   6.0590000   4.3180000
 -10.8360000   6.5780000   3.0460000 -10.0230000   5.1440000   2.9380000
  -4.0930000   7.9880000   1.2800000  -4.6990000   8.4200000   0.2990000
  -3.4940000   8.7670000   2.1700000  -3.0130000   8.3490000   2.9550000
  -3.5270000  10.2150000   2.0760000  -4.5390000  10.5420000   1.8550000
  -3.1300000  10.8180000   3.4180000  -2.1710000  10.4090000   3.7360000
  -3.0270000  11.8980000   3.3070000  -4.1500000  10.5520000   4.4850000
  -5.3610000   9.9390000   4.3270000  -5.7790000   9.6220000   3.3910000
  -6.0250000   9.8870000   5.5280000  -6.9600000   9.5140000   5.6460000
  -5.2460000  10.4720000   6.4920000  -5.4870000  10.6590000   7.8500000
  -6.4110000  10.3340000   8.3050000  -4.5160000  11.2850000   8.5810000
  -4.6830000  11.4770000   9.6310000  -3.3260000  11.7250000   7.9940000
  -2.6220000  12.2900000   8.5790000  -3.0840000  11.5420000   6.6460000
  -2.1730000  11.9080000   6.1920000  -4.0560000  10.9030000   5.8700000
  -2.6260000  10.7340000   0.9540000  -2.9750000  11.6880000   0.2590000
  -1.4820000  10.0870000   0.7590000  -1.2220000   9.3170000   1.3590000
  -0.5730000  10.4810000  -0.3090000  -0.4730000  11.5670000  -0.2960000
   0.8090000   9.8640000  -0.0860000   0.7140000   8.9460000   0.4930000
   1.2630000   9.6000000  -1.0420000   1.7630000  10.8290000   0.6090000
   1.8650000  11.7030000  -0.0290000   1.3510000  11.1380000   1.5450000
   3.1330000  10.2420000   0.8640000   3.2870000   9.0070000   0.7520000
   4.0580000  11.0210000   1.1780000  -1.1020000  10.1100000  -1.6900000
  -0.4710000  10.4130000  -2.7030000  -2.2700000   9.4750000  -1.7250000
  -2.7470000   9.2600000  -0.8610000  -2.8780000   9.0330000  -2.9740000
  -2.2430000   9.2930000  -3.8200000  -3.0560000   7.5180000  -2.9630000
  -3.4960000   7.2210000  -2.0100000  -3.7500000   7.2170000  -3.7480000
  -1.7710000   6.7550000  -3.2060000  -1.4670000   6.8910000  -4.2450000
  -0.9820000   7.1460000  -2.5620000  -1.9480000   5.2810000  -2.9170000
  -2.2500000   5.1440000  -1.8820000  -2.7460000   4.8950000  -3.5530000
  -0.7310000   4.5310000  -3.2000000  -0.0730000   4.9460000  -3.8420000
  -0.4440000   3.3490000  -2.6680000  -1.2840000   2.7860000  -1.8100000
  -2.1320000   3.2670000  -1.5520000  -1.0550000   1.9000000  -1.3850000
   0.6870000   2.7340000  -2.9850000   1.3300000   3.1620000  -3.6320000
   0.9080000   1.8440000  -2.5640000  -4.2200000   9.7080000  -3.2360000
  -4.9370000   9.3430000  -4.1690000  -4.5640000  10.6880000  -2.4060000
  -3.9450000  10.9610000  -1.6570000  -5.7960000  11.4380000  -2.6030000
  -6.5940000  10.7560000  -2.8920000  -6.1970000  12.1620000  -1.3170000
  -5.3710000  12.8030000  -1.0040000  -7.0460000  12.8100000  -1.5390000
  -6.5910000  11.2530000  -0.1520000  -5.7230000  10.6720000   0.1310000
  -7.0250000  12.0750000   1.0490000  -7.2680000  11.4070000   1.8740000
  -6.2130000  12.7360000   1.3540000  -7.9020000  12.6750000   0.8000000
  -7.6860000  10.2970000  -0.5720000  -8.0020000   9.7140000   0.2930000
  -8.5480000  10.8460000  -0.9470000  -7.3320000   9.5920000  -1.3220000
  -5.6510000  12.4350000  -3.7490000  -4.5400000  12.7990000  -4.1360000
  -6.7790000  12.8600000  -4.3040000  -7.6690000  12.5170000  -3.9670000
  -6.7720000  13.9120000  -5.3080000  -5.8180000  13.9160000  -5.8370000
  -7.8630000  13.6690000  -6.3520000  -8.8380000  13.7380000  -5.8680000
  -7.8150000  14.4430000  -7.1180000  -7.7270000  12.3150000  -7.0290000
  -6.7450000  12.0540000  -7.7260000  -8.7180000  11.4510000  -6.8380000
  -8.6730000  10.5390000  -7.2610000  -9.4960000  11.6990000  -6.2390000
  -6.9490000  15.2630000  -4.6220000  -7.4160000  15.3240000  -3.4850000
  -6.5760000  16.3420000  -5.3060000  -6.2350000  16.2400000  -6.2500000
  -6.4890000  17.6580000  -4.6730000  -5.8580000  17.5570000  -3.7890000
  -5.8110000  18.6390000  -5.6160000  -4.8290000  18.2580000  -5.9000000
  -6.4180000  18.7730000  -6.5130000  -5.6860000  19.6020000  -5.1210000
  -7.8380000  18.2230000  -4.2130000  -7.8790000  19.1470000  -3.4020000
  -8.9340000  17.6710000  -4.7230000  -8.8390000  16.8690000  -5.3170000
 -10.2670000  18.1700000  -4.3810000 -10.2110000  19.2290000  -4.1320000
 -11.2060000  18.0370000  -5.5830000 -12.2410000  18.2000000  -5.2800000
 -10.9480000  18.8160000  -6.3020000 -11.0680000  16.6990000  -6.2850000
  -9.9300000  16.1930000  -6.3610000 -12.0880000  16.1540000  -6.7610000
 -10.8730000  17.4490000  -3.1810000 -11.9670000  17.7900000  -2.7250000
 -10.1510000  16.4600000  -2.6670000  -9.2620000  16.2170000  -3.0840000
 -10.7070000  15.5460000  -1.6790000 -11.7960000  15.5720000  -1.7430000
 -10.2880000  14.1150000  -2.0160000  -9.2010000  14.0560000  -1.9680000
 -10.7010000  13.4350000  -1.2700000 -10.7630000  13.6730000  -3.3890000
 -11.8530000  13.6280000  -3.3850000 -10.4560000  14.3970000  -4.1440000
 -10.2100000  12.3260000  -3.8100000  -9.2980000  11.8080000  -3.1320000
 -10.6950000  11.7870000  -4.8290000 -10.3110000  15.8840000  -0.2450000
  -9.1790000  16.2890000   0.0280000 -11.2650000  15.7080000   0.6620000
 -12.1610000  15.3430000   0.3730000 -11.0500000  15.9510000   2.0820000
 -10.2510000  16.6830000   2.2110000 -12.3170000  16.5280000   2.7300000
 -13.0980000  15.7650000   2.7240000 -12.0790000  16.7590000   3.7530000
 -12.8490000  17.7590000   2.0600000 -14.0700000  18.3100000   2.3840000
 -14.7160000  17.9290000   3.0610000 -14.2790000  19.3840000   1.6430000
 -15.1620000  20.0060000   1.6700000 -13.2360000  19.5530000   0.8490000
 -12.3270000  18.5490000   1.0890000 -11.3800000  18.4010000   0.5940000
 -10.6420000  14.6650000   2.8040000 -10.8270000  13.5630000   2.2870000
 -10.0840000  14.8120000   4.0000000  -9.9460000  15.7350000   4.3830000
  -9.8380000  13.6660000   4.8720000  -9.9370000  12.7350000   4.3120000
  -8.4200000  13.6870000   5.4570000  -8.2670000  14.6390000   5.9630000
  -8.2600000  12.5690000   6.4710000  -7.2880000  12.6220000   6.9530000
  -8.9720000  12.6540000   7.2890000  -8.3820000  11.5970000   5.9910000
  -7.3850000  13.5540000   4.3420000  -7.5410000  12.6050000   3.8330000
  -7.5170000  14.3580000   3.6180000  -5.9640000  13.6030000   4.8230000
  -5.2940000  13.5070000   3.9690000  -5.7790000  14.5590000   5.3140000
  -5.7510000  12.8070000   5.5160000 -10.8490000  13.6330000   6.0180000
 -10.9730000  14.5950000   6.7770000 -11.5850000  12.5330000   6.1260000
 -11.4640000  11.7760000   5.4690000 -12.4650000  12.3120000   7.2670000
 -12.8770000  13.2620000   7.6100000 -13.6480000  11.4180000   6.8770000
 -13.2610000  10.4720000   6.4960000 -14.2520000  11.2290000   7.7540000
 -14.5580000  12.0420000   5.8180000 -15.0060000  12.9480000   6.2300000
 -13.9640000  12.3230000   4.9470000 -15.6620000  11.1110000   5.3480000
 -15.6480000   9.9170000   5.7230000 -16.5480000  11.5760000   4.5980000
 -11.6440000  11.6990000   8.4010000 -11.4110000  10.4890000   8.4300000
 -11.1990000  12.5480000   9.3250000 -11.4710000  13.5200000   9.2730000
 -10.1940000  12.1610000  10.3180000  -9.3180000  11.8100000   9.7710000
  -9.7530000  13.3860000  11.1670000 -10.5850000  13.8640000  11.6620000
  -8.7750000  12.9640000  12.2560000  -8.4360000  13.8430000  12.8030000
  -9.2540000  12.3070000  12.9800000  -7.9170000  12.4540000  11.8170000
  -9.1430000  14.4600000  10.2730000  -8.7740000  15.2760000  10.8920000
  -8.3140000  14.0440000   9.6990000  -9.8930000  14.8610000   9.5900000
 -10.6260000  11.0180000  11.2570000  -9.9230000  10.0110000  11.3430000
 -11.7760000  11.1490000  11.9520000 -12.7710000  12.2320000  12.0120000
 -13.5330000  12.0630000  11.2520000 -12.3800000  13.2290000  11.9070000
 -13.3560000  12.0540000  13.3620000 -14.3680000  12.4520000  13.3790000
 -12.7260000  12.5490000  14.1030000 -13.3610000  10.5780000  13.6030000
 -14.2680000  10.1530000  13.1700000 -13.3150000  10.3510000  14.6690000
 -12.1230000  10.0500000  12.8680000 -11.3160000   9.8700000  13.5650000
 -12.4440000   8.7400000  12.1480000 -12.2630000   7.6640000  12.7140000
 -12.9120000   8.8390000  10.9090000 -13.0850000   9.7480000  10.4990000
 -13.1860000   7.6610000  10.0990000 -13.8410000   6.9920000  10.6580000
 -13.8980000   8.0580000   8.7980000 -13.4260000   8.9270000   8.3490000
 -13.7730000   7.2330000   8.0960000 -15.4090000   8.2820000   8.9260000
 -15.8430000   8.2600000   7.9260000 -15.8460000   7.4580000   9.4930000
 -15.7940000   9.6110000   9.5850000 -14.9000000  10.4290000   9.9010000
 -17.0080000   9.8350000   9.7850000 -11.8980000   6.8970000   9.7880000
 -11.8350000   5.6760000   9.9610000 -10.8730000   7.6210000   9.3380000
 -10.9850000   8.6190000   9.2110000  -9.5960000   7.0130000   8.9570000
  -9.8000000   6.0910000   8.4170000  -8.7940000   7.9630000   8.0610000
  -8.9360000   8.9950000   8.3870000  -7.7320000   7.7300000   8.1530000
  -9.1500000   7.8200000   6.5910000  -9.6160000   6.7330000   6.1940000
  -8.9620000   8.7920000   5.8310000  -8.7500000   6.6050000  10.1640000
  -7.9800000   5.6480000  10.0920000  -8.8860000   7.3310000  11.2690000
  -9.5100000   8.1260000  11.2810000  -8.2070000   6.9460000  12.5000000
  -7.1500000   6.7910000  12.2870000  -8.3410000   8.0380000  13.5650000
  -9.3940000   8.2850000  13.7080000  -7.9570000   7.6440000  14.5060000
  -7.5580000   9.3240000  13.2620000  -7.9690000   9.8470000  12.4130000
  -7.6510000   9.9810000  14.1270000  -5.7920000   9.0900000  12.9330000
  -5.7440000   9.2440000  11.1510000  -4.7100000   9.3460000  10.8340000
  -6.1860000   8.3610000  10.6890000  -6.2990000  10.1310000  10.8470000
  -8.7670000   5.6160000  13.0120000  -8.0280000   4.7770000  13.5250000
 -10.0740000   5.4220000  12.8560000 -10.6420000   6.1460000  12.4360000
 -10.7140000   4.1700000  13.2470000 -10.4580000   3.9570000  14.2850000
 -12.2550000   4.2750000  13.1520000 -12.5430000   4.6570000  12.1740000
 -12.9140000   2.9180000  13.3550000 -13.9910000   3.0500000  13.4670000
 -12.7450000   2.2740000  12.4920000 -12.5230000   2.4390000  14.2530000
 -12.7310000   5.1750000  14.1610000 -12.5010000   6.0690000  13.8900000
 -10.2110000   3.0020000  12.3920000 -10.0050000   1.9030000  12.9000000
 -10.0020000   3.2420000  11.1000000 -10.2030000   4.1560000  10.7180000
  -9.4380000   2.2250000  10.2130000 -10.0820000   1.3440000  10.2290000
  -9.3510000   2.7460000   8.7800000  -8.8070000   3.6880000   8.7620000
  -8.7650000   2.0300000   8.2020000 -10.6780000   2.9310000   8.0730000
 -11.2590000   2.0150000   8.1120000 -11.2520000   3.7090000   8.5680000
 -10.4470000   3.3350000   6.6190000  -9.9500000   4.3020000   6.5840000
  -9.7710000   2.6120000   6.1630000 -11.6830000   3.3390000   5.8410000
 -11.9610000   2.4700000   5.4060000 -12.4440000   4.4120000   5.6490000
 -12.1000000   5.5780000   6.1830000 -12.6900000   6.3870000   6.0600000
 -11.2300000   5.6730000   6.6880000 -13.5510000   4.3170000   4.9290000
 -13.8070000   3.4430000   4.4910000 -14.1430000   5.1230000   4.7910000
  -8.0500000   1.7950000  10.6760000  -7.6940000   0.6210000  10.6140000
  -7.2750000   2.7700000  11.1370000  -7.6340000   3.7140000  11.1440000
  -5.8960000   2.5690000  11.5710000  -5.3700000   2.0020000  10.8020000
  -5.2070000   3.9410000  11.7110000  -5.2670000   4.3890000  10.7180000
  -5.8420000   4.5670000  12.3340000  -3.7650000   4.2090000  12.1790000
  -3.5090000   5.2220000  11.8680000  -3.6280000   4.1720000  13.6960000
  -2.7490000   3.6030000  13.9950000  -3.5700000   5.1890000  14.0830000
  -4.4860000   3.6890000  14.1500000  -2.7560000   3.2820000  11.5190000
  -1.7460000   3.6220000  11.7390000  -2.8720000   2.2780000  11.9260000
  -2.9010000   3.2850000  10.4390000  -5.8190000   1.7800000  12.8770000
  -5.0040000   0.8630000  13.0040000  -6.6730000   2.1290000  13.8390000
  -7.3310000   2.8760000  13.6730000  -6.5950000   1.5490000  15.1790000
  -5.5500000   1.4070000  15.4300000  -7.2190000   2.4920000  16.2540000
  -7.1570000   2.0080000  17.2280000  -6.4590000   3.8070000  16.3310000
  -6.8880000   4.4270000  17.1050000  -5.4210000   3.6100000  16.5950000
  -6.4830000   4.3440000  15.3870000  -8.5930000   2.7630000  15.9490000
  -8.6230000   3.2610000  15.1280000  -7.2610000   0.1710000  15.2670000
  -6.8310000  -0.6790000  16.0430000  -8.3060000  -0.0500000  14.4780000
  -8.6530000   0.6810000  13.8730000  -8.9440000  -1.3610000  14.4270000
  -9.1690000  -1.6780000  15.4460000 -10.2530000  -1.3080000  13.6390000
 -10.9420000  -0.6380000  14.1560000 -10.0360000  -0.8640000  12.6660000
 -10.9510000  -2.6500000  13.3910000 -10.2510000  -3.3490000  12.9350000
 -11.4420000  -3.2610000  14.6970000 -11.9580000  -4.1990000  14.4930000
 -10.5990000  -3.4710000  15.3550000 -12.1290000  -2.5790000  15.2000000
 -12.1010000  -2.4860000  12.4060000 -12.6920000  -3.4010000  12.3560000
 -12.7290000  -1.6540000  12.7050000 -11.6980000  -2.2730000  11.4160000
  -8.0030000  -2.3750000  13.7990000  -7.8370000  -3.4820000  14.3080000
  -7.3830000  -1.9860000  12.6920000  -7.5740000  -1.0760000  12.2960000
  -6.4730000  -2.8750000  11.9830000  -6.9870000  -3.8160000  11.7860000
  -6.0700000  -2.2760000  10.6330000  -5.8720000  -1.2100000  10.7300000
  -5.1540000  -2.7670000  10.3220000  -7.1030000  -2.5280000   9.5550000
  -8.3070000  -2.3520000   9.8290000  -6.7150000  -2.9380000   8.4420000
  -5.2290000  -3.1940000  12.8000000  -4.6770000  -4.2880000  12.6900000
  -4.7920000  -2.2440000  13.6190000  -5.2580000  -1.3480000  13.6490000
  -3.6130000  -2.4500000  14.4500000  -2.7970000  -2.7980000  13.8150000
  -3.1650000  -1.1410000  15.1250000  -4.0110000  -0.6780000  15.6340000
  -2.0660000  -1.4150000  16.1310000  -1.6070000  -0.4760000  16.4340000
  -2.4770000  -1.8840000  17.0220000  -1.3020000  -2.0540000  15.6900000
  -2.6610000  -0.2430000  14.1280000  -1.8890000  -0.6410000  13.7180000
  -3.8550000  -3.5210000  15.5190000  -3.0940000  -4.4830000  15.6130000
  -4.9120000  -3.3670000  16.3130000  -5.5290000  -2.5750000  16.1970000
  -5.2110000  -4.3460000  17.3590000  -4.2960000  -4.4910000  17.9330000
  -6.3350000  -3.8580000  18.3190000  -6.0350000  -2.8870000  18.7170000
  -7.6520000  -3.6650000  17.5840000  -8.3860000  -3.2420000  18.2700000
  -7.5310000  -2.9730000  16.7600000  -8.0440000  -4.6130000  17.2150000
  -6.4990000  -4.8220000  19.4990000  -7.2560000  -4.3920000  20.1460000
  -6.8600000  -5.7960000  19.1720000  -5.2460000  -4.9880000  20.3480000
  -5.5190000  -5.4060000  21.3190000  -4.5480000  -5.6720000  19.8610000
  -4.7630000  -4.0220000  20.5080000  -5.5960000  -5.6820000  16.7290000
  -5.3260000  -6.7430000  17.2930000  -6.1940000  -5.6250000  15.5410000
  -6.4070000  -4.7280000  15.1270000  -6.5390000  -6.8250000  14.8010000
  -7.2000000  -7.4530000  15.3990000  -7.0580000  -6.5170000  13.8950000
  -5.3210000  -7.6250000  14.3690000  -5.3180000  -8.8540000  14.4280000
  -4.2760000  -6.9290000  13.9350000  -4.3200000  -5.9200000  13.8820000
  -3.0620000  -7.5990000  13.4840000  -3.3620000  -8.5100000  12.9680000
  -2.2920000  -6.7140000  12.5070000  -2.9800000  -6.3850000  11.7260000
  -1.9450000  -5.8200000  13.0280000  -1.1020000  -7.4010000  11.8420000
  -0.4090000  -7.7310000  12.6110000  -1.5700000  -8.6200000  11.0600000
  -0.7740000  -8.9680000  10.3990000  -1.8090000  -9.4340000  11.7380000
  -2.4440000  -8.3780000  10.4550000  -0.3570000  -6.4260000  10.9440000
   0.5590000  -6.8850000  10.5720000  -0.9840000  -6.1470000  10.0970000
  -0.1020000  -5.5200000  11.4910000  -2.1600000  -7.9780000  14.6550000
  -1.7810000  -9.1400000  14.8070000  -1.8170000  -6.9860000  15.4710000
  -2.1440000  -6.0500000  15.2840000  -0.9300000  -7.1930000  16.6050000
   0.0240000  -7.5730000  16.2360000  -0.6730000  -5.8730000  17.3300000
  -1.6210000  -5.4930000  17.7110000  -0.0190000  -6.0530000  18.1810000
   0.0680000  -4.6070000  16.2930000   1.2460000  -5.2330000  16.1130000
  -1.4920000  -8.2030000  17.5850000  -0.7610000  -9.0340000  18.1210000
  -2.7990000  -8.1310000  17.8060000  -3.3550000  -7.4380000  17.3250000
  -3.4440000  -8.9300000  18.8280000  -2.7710000  -9.0470000  19.6780000
  -4.3190000  -8.3810000  19.1750000  -3.9100000 -10.2980000  18.3800000
  -3.8890000 -11.2380000  19.1680000  -4.3280000 -10.4230000  17.1230000
  -4.3250000  -9.6220000  16.5080000  -4.9710000 -11.6550000  16.6680000
  -4.7650000 -12.4620000  17.3700000  -6.4880000 -11.4560000  16.6190000
  -6.7360000 -10.7630000  15.8130000  -6.9560000 -12.4100000  16.3870000
  -7.0660000 -10.9380000  17.9040000  -7.4550000 -11.8140000  18.9090000
  -7.4370000 -12.8740000  18.7290000  -7.9790000 -11.3410000  20.0980000
  -8.2540000 -12.0320000  20.8780000  -8.1180000  -9.9770000  20.2990000
  -8.5130000  -9.6110000  21.2310000  -7.7300000  -9.0920000  19.3060000
  -7.8390000  -8.0280000  19.4570000  -7.2050000  -9.5750000  18.1170000
  -6.9050000  -8.8780000  17.3480000  -4.4800000 -12.1460000  15.3120000
  -4.9810000 -13.1520000  14.8060000  -3.5090000 -11.4360000  14.7370000
  -3.1310000 -10.6300000  15.2150000  -2.9450000 -11.7580000  13.4210000
  -2.2970000 -10.9300000  13.1540000  -2.1100000 -13.0420000  13.4950000
  -1.5670000 -13.0620000  14.4400000  -2.7620000 -13.9150000  13.4620000
  -1.0730000 -13.1370000  12.3840000  -0.7360000 -12.1420000  11.7410000
  -0.5530000 -14.3400000  12.1650000  -0.8490000 -15.1300000  12.7170000
   0.1480000 -14.4480000  11.4490000  -4.0320000 -11.8860000  12.3490000
  -3.9380000 -12.7130000  11.4390000  -5.0640000 -11.0550000  12.4750000
  -5.0820000 -10.3960000  13.2410000  -6.1670000 -11.0150000  11.5230000
  -6.0200000 -11.7680000  10.7480000  -7.4920000 -11.3350000  12.2240000
  -7.4120000 -12.3220000  12.6820000  -7.6470000 -10.6170000  13.0320000
  -8.7080000 -11.3280000  11.3170000  -9.0040000 -12.4200000  10.5080000
  -8.3610000 -13.2890000  10.5230000 -10.1180000 -12.4190000   9.6790000
 -10.3260000 -13.2760000   9.0560000 -10.9570000 -11.3190000   9.6580000
 -12.0640000 -11.3130000   8.8360000 -12.1230000 -12.1270000   8.3310000
 -10.6890000 -10.2250000  10.4580000 -11.3430000  -9.3670000  10.4400000
  -9.5710000 -10.2360000  11.2840000  -9.3670000  -9.3750000  11.9060000
  -6.2290000  -9.6420000  10.8540000  -6.1780000  -8.6060000  11.5220000
  -6.3330000  -9.6320000   9.5310000  -6.3850000 -10.4990000   9.0160000
  -6.3620000  -8.3720000   8.8040000  -5.9590000  -7.5680000   9.4230000
  -5.4660000  -8.4480000   7.5690000  -5.7090000  -9.3390000   6.9870000
  -5.6660000  -7.5710000   6.9560000  -3.9880000  -8.4420000   7.9130000
  -3.7670000  -7.5460000   8.4960000  -3.7490000  -9.3200000   8.5150000
  -3.1220000  -8.4440000   6.6750000  -3.2870000  -9.3800000   6.1400000
  -3.4250000  -7.6310000   6.0140000  -1.7020000  -8.3510000   7.0030000
  -1.2150000  -9.2070000   7.2240000  -1.0110000  -7.2150000   7.0260000
  -1.6070000  -6.0680000   6.7320000  -2.5850000  -6.0480000   6.4950000
  -1.0620000  -5.2140000   6.7490000   0.2780000  -7.2270000   7.3360000
   0.7560000  -8.0910000   7.5410000   0.8180000  -6.3700000   7.2880000
  -7.7810000  -7.9850000   8.4160000  -8.4070000  -8.6280000   7.5750000
  -8.2850000  -6.9360000   9.0610000  -7.7310000  -6.4780000   9.7700000
  -9.5950000  -6.3840000   8.7490000 -10.3260000  -7.1930000   8.7240000
 -10.0280000  -5.3710000   9.8100000  -9.2190000  -4.6620000   9.9710000
 -10.8860000  -4.8090000   9.4380000 -10.4120000  -5.9890000  11.1190000
 -11.6800000  -6.5170000  11.3010000 -12.3990000  -6.4780000  10.5000000
 -12.0420000  -7.0840000  12.5070000 -13.0450000  -7.4460000  12.6380000
 -11.1380000  -7.1230000  13.5510000 -11.4250000  -7.5510000  14.4990000
  -9.8720000  -6.5960000  13.3840000  -9.1860000  -6.6000000  14.2150000
  -9.5150000  -6.0290000  12.1740000  -8.5230000  -5.6160000  12.0600000
  -9.5760000  -5.7210000   7.3840000 -10.6040000  -5.6340000   6.7150000
  -8.3950000  -5.2500000   6.9920000  -7.6050000  -5.3090000   7.6180000
  -8.1930000  -4.5860000   5.7120000  -7.1830000  -4.1730000   5.7050000
  -8.3180000  -5.5980000   4.5730000  -9.2920000  -6.0860000   4.6000000
  -8.2480000  -5.0950000   3.6120000  -7.2150000  -6.6460000   4.6020000
  -6.0400000  -6.3140000   4.7550000  -7.5870000  -7.9130000   4.4460000
  -6.8840000  -8.6360000   4.4650000  -8.5600000  -8.1470000   4.3340000
  -9.1590000  -3.4190000   5.5180000  -9.8970000  -3.3560000   4.5300000
  -9.1360000  -2.4920000   6.4710000  -8.4950000  -2.5930000   7.2490000
 -10.0960000  -1.3930000   6.5080000 -11.0930000  -1.7990000   6.3300000
 -10.0980000  -0.7380000   7.8910000  -9.1280000  -0.2840000   8.0960000
 -10.8720000   0.0220000   7.9030000 -10.4050000  -1.6810000   8.9010000
  -9.5720000  -2.0080000   9.2760000  -9.8270000  -0.3340000   5.4510000
 -10.7240000   0.4200000   5.0820000  -8.5920000  -0.2650000   4.9720000
  -7.8740000  -0.8870000   5.3160000  -8.2570000   0.7160000   3.9520000
  -8.8420000   1.6230000   4.1080000  -6.7800000   1.1010000   4.0380000
  -6.1680000   0.1990000   3.9830000  -6.5230000   1.7220000   3.1790000
  -6.4410000   1.8770000   5.2770000  -6.8340000   3.2000000   5.4100000
  -7.3830000   3.6760000   4.6140000  -6.5350000   3.9170000   6.5530000
  -6.8600000   4.9440000   6.6500000  -5.8380000   3.3140000   7.5810000
  -5.5950000   3.8720000   8.4730000  -5.4450000   1.9940000   7.4670000
  -4.9070000   1.5180000   8.2730000  -5.7510000   1.2810000   6.3200000
  -5.4400000   0.2490000   6.2420000  -8.6130000   0.1760000   2.5730000
  -8.4470000   0.8570000   1.5650000  -9.1260000  -1.0480000   2.5420000
  -9.2300000  -1.5770000   3.3960000  -9.6230000  -1.6390000   1.3070000
  -9.2320000  -1.0990000   0.4440000  -9.1560000  -3.0920000   1.1890000
  -9.4930000  -3.6600000   2.0530000  -9.6230000  -3.5450000   0.3140000
  -7.6560000  -3.2440000   1.0340000  -6.8210000  -3.2800000   2.1450000
  -7.2360000  -3.1720000   3.1350000  -5.4530000  -3.4200000   2.0050000
  -4.8140000  -3.4340000   2.8770000  -4.9040000  -3.5260000   0.7390000
  -3.5410000  -3.6640000   0.5880000  -3.2780000  -3.7830000  -0.3260000
  -5.7120000  -3.4930000  -0.3780000  -5.2820000  -3.5810000  -1.3650000
  -7.0770000  -3.3540000  -0.2270000  -7.7030000  -3.3210000  -1.1070000
 -11.1490000  -1.5590000   1.2410000 -11.7740000  -2.1980000   0.3890000
 -11.7350000  -0.7580000   2.1350000 -11.1640000  -0.2230000   2.7730000
 -13.1880000  -0.7040000   2.3150000 -13.6700000  -1.2600000   1.5100000
 -13.5820000  -1.3760000   3.6380000 -12.9680000  -0.9720000   4.4440000
 -14.6200000  -1.1140000   3.8530000 -13.4850000  -2.8990000   3.6430000
 -14.1390000  -3.2790000   2.8570000 -12.4640000  -3.2160000   3.4290000
 -13.9210000  -3.4770000   4.9870000 -13.0700000  -3.4940000   5.6700000
 -14.6680000  -2.8130000   5.4240000 -14.5520000  -4.7940000   4.8640000
 -15.5300000  -4.8100000   4.6180000 -13.9220000  -5.9530000   5.0420000
 -12.6340000  -5.9690000   5.3540000 -12.1510000  -6.8370000   5.5190000
 -12.1200000  -5.1030000   5.4460000 -14.5790000  -7.0990000   4.9160000
 -14.0870000  -7.9730000   5.0150000 -15.5560000  -7.0910000   4.6670000
 -13.7640000   0.7190000   2.2780000 -13.1930000   1.6510000   2.8500000
 -14.9070000   0.8550000   1.6020000 -15.2920000   0.0500000   1.1300000
 -15.6550000   2.1130000   1.4920000 -14.9910000   2.8870000   1.1060000
 -16.8430000   1.9510000   0.5330000 -17.3830000   1.0290000   0.7590000
 -17.5300000   2.7890000   0.6650000 -16.4330000   1.9480000  -0.9190000
 -15.5490000   2.7520000  -1.2790000 -17.0110000   1.1570000  -1.7010000
 -16.1950000   2.5970000   2.8250000 -15.6940000   3.5560000   3.4090000
 -17.2570000   1.9300000   3.2680000 -17.6170000   1.1670000   2.7150000
 -17.9080000   2.2060000   4.5420000 -17.9060000   3.2830000   4.7190000
 -19.3620000   1.7230000   4.5010000 -19.3480000   0.6350000   4.4170000
 -19.8790000   1.9620000   5.4270000 -20.1650000   2.2600000   3.3250000
 -19.6480000   2.0780000   2.3820000 -21.1080000   1.7150000   3.2780000
 -20.4970000   3.7350000   3.4630000 -20.5370000   4.2750000   4.5700000
 -20.7340000   4.3930000   2.3350000 -20.9480000   5.3780000   2.3790000
 -20.6780000   3.9180000   1.4470000 -17.1320000   1.5180000   5.6640000
 -16.1850000   0.7790000   5.3880000 -17.5090000   1.7620000   6.9320000
 -18.3400000   2.8410000   7.4950000 -19.3900000   2.5480000   7.4840000
 -18.1920000   3.7860000   6.9710000 -17.8580000   2.9350000   8.9140000
 -18.6450000   3.2930000   9.5790000 -16.9980000   3.6060000   8.9580000
 -17.4280000   1.5620000   9.2690000 -18.3030000   0.9710000   9.5470000
 -16.7040000   1.5710000  10.0830000 -16.8080000   1.0170000   7.9810000
 -15.7450000   1.2640000   7.9550000 -17.0100000  -0.4940000   7.8730000
 -17.9650000  -0.9590000   7.2460000 -16.0860000  -1.2440000   8.4640000
 -15.3210000  -0.7990000   8.9500000 -16.2010000  -2.6910000   8.5410000
 -16.1860000  -3.0570000   7.5170000 -14.9940000  -3.2840000   9.2840000
 -14.0840000  -2.8200000   8.8990000 -15.0650000  -3.0430000  10.3450000
 -14.8440000  -4.7670000   9.1280000 -15.5190000  -5.6720000   9.9190000
 -15.1880000  -6.9000000   9.5620000 -15.6390000  -7.8050000   9.9290000
 -14.3150000  -6.8270000   8.5740000 -13.8830000  -7.6160000   8.1150000
 -14.0800000  -5.5030000   8.2850000 -13.3750000  -5.1010000   7.5780000
 -17.5120000  -3.0270000   9.2470000 -17.9220000  -2.3100000  10.1620000
 -18.1910000  -4.0960000   8.8020000 -17.8350000  -4.8940000   7.6140000
 -16.9490000  -5.4960000   7.7890000 -17.7130000  -4.2690000   6.7290000
 -19.0260000  -5.7990000   7.4330000 -18.7300000  -6.7690000   7.0330000
 -19.7360000  -5.3200000   6.7570000 -19.6490000  -5.9320000   8.7750000
 -19.1150000  -6.6970000   9.3420000 -20.7080000  -6.1840000   8.7050000
 -19.4420000  -4.5590000   9.4140000 -20.2540000  -3.8860000   9.1330000
 -19.3500000  -4.6720000  10.9350000 -20.3480000  -4.4630000  11.6260000
 -18.1620000  -4.9910000  11.4400000 -17.3820000  -5.1560000  10.8200000
 -17.9130000  -5.0330000  12.8740000 -18.6020000  -5.7500000  13.3240000
 -16.4830000  -5.5010000  13.1540000 -16.3370000  -6.4740000  12.6830000
 -15.7790000  -4.8070000  12.6920000 -16.1570000  -5.6260000  14.6190000
 -16.4340000  -6.7970000  15.3060000 -16.8910000  -7.6310000  14.7910000
 -16.1350000  -6.9170000  16.6520000 -16.3620000  -7.8340000  17.1760000
 -15.5570000  -5.8590000  17.3260000 -15.3250000  -5.9500000  18.3780000
 -15.2760000  -4.6850000  16.6540000 -14.8250000  -3.8540000  17.1780000
 -15.5720000  -4.5720000  15.3080000 -15.3350000  -3.6520000  14.7920000
 -18.1550000  -3.6680000  13.5140000 -18.8210000  -3.5670000  14.5430000
 -17.6160000  -2.6230000  12.8950000 -17.1060000  -2.7610000  12.0350000
 -17.7170000  -1.2680000  13.4320000 -17.3670000  -1.2980000  14.4610000
 -16.8680000  -0.2800000  12.6060000 -17.1840000  -0.3110000  11.5650000
 -17.0540000   1.1450000  13.1130000 -16.3100000   1.8020000  12.6620000
 -18.0370000   1.5220000  12.8300000 -16.9550000   1.1970000  14.1970000
 -15.3930000  -0.6720000  12.6720000 -15.2620000  -1.6780000  12.2740000
 -14.8170000  -0.0040000  12.0300000 -14.8140000  -0.6220000  14.0760000
 -14.0770000   0.1790000  14.1250000 -15.5500000  -0.4380000  14.8470000
 -14.3160000  -1.5630000  14.3040000 -19.1610000  -0.7620000  13.4860000
 -19.5730000  -0.1490000  14.4690000 -19.9260000  -1.0220000  12.4300000
 -19.5430000  -1.5260000  11.6420000 -21.3220000  -0.5990000  12.3800000
 -21.3590000   0.4830000  12.5130000 -21.9600000  -0.9430000  11.0270000
 -21.8710000  -2.0130000  10.8390000 -23.4320000  -0.5560000  11.0140000
 -23.8230000  -0.6550000  10.0010000 -24.0040000  -1.2190000  11.6610000
 -23.5560000   0.4750000  11.3470000 -21.2750000  -0.2330000   9.9890000
 -21.3730000   0.7090000  10.1460000 -22.1330000  -1.2400000  13.5030000
 -22.8750000  -0.5600000  14.2150000 -21.9750000  -2.5500000  13.6630000
 -21.3560000  -3.0650000  13.0510000 -22.6300000  -3.2780000  14.7440000
 -23.7020000  -3.1010000  14.6740000 -22.3800000  -4.7760000  14.6040000
 -21.3090000  -4.9670000  14.5200000 -22.7590000  -5.2840000  15.4890000
 -23.0410000  -5.2880000  13.4640000 -23.9880000  -5.2310000  13.6220000
 -22.1720000  -2.8050000  16.1210000 -22.9950000  -2.6000000  17.0130000
 -20.8630000  -2.6300000  16.2850000 -20.2380000  -2.8100000  15.5130000
 -20.2870000  -2.2170000  17.5620000 -20.5880000  -2.9370000  18.3230000
 -18.7630000  -2.2230000  17.4810000 -18.4210000  -3.2310000  17.2440000
 -18.4840000  -1.5830000  16.6510000 -18.0750000  -1.7780000  18.7600000
 -18.5790000  -0.9190000  19.1980000 -18.1110000  -2.5960000  19.4760000
 -16.3670000  -1.2900000  18.4720000 -16.5980000   0.1250000  17.3920000
 -17.2830000   0.8300000  17.8630000 -15.6410000   0.6180000  17.2300000
 -16.9990000  -0.1770000  16.4290000 -20.7650000  -0.8370000  18.0100000
 -21.1590000  -0.6480000  19.1650000 -20.7180000   0.1270000  17.0980000
 -20.3910000  -0.0750000  16.1640000 -21.1200000   1.4920000  17.4150000
 -20.5370000   1.8390000  18.2700000 -20.8620000   2.4450000  16.2270000
 -21.2780000   2.0000000  15.3210000 -21.5480000   3.7860000  16.4460000
 -21.2380000   4.4900000  15.6730000 -22.6320000   3.6890000  16.3840000
 -21.2750000   4.1940000  17.4190000 -19.3700000   2.6330000  16.0220000
 -19.1920000   3.1840000  15.0990000 -18.9500000   3.1940000  16.8580000
 -18.8540000   1.6780000  15.9630000 -22.5920000   1.5380000  17.8040000
 -22.9650000   2.1710000  18.7940000 -23.4210000   0.8430000  17.0310000
 -23.0590000   0.3330000  16.2360000 -24.8570000   0.8060000  17.2770000
 -25.2190000   1.8330000  17.3450000 -25.5700000   0.1220000  16.1070000
 -25.3010000   0.6640000  15.1990000 -25.2000000  -0.9000000  16.0100000
 -27.0860000   0.1010000  16.2200000 -27.3960000  -0.6390000  16.9570000
 -27.4340000   1.0790000  16.5540000 -27.7410000  -0.1970000  14.8760000
 -28.8160000  -0.2760000  15.0260000 -27.5670000   0.6650000  14.2340000
 -27.2590000  -1.4350000  14.2640000 -27.2030000  -2.2530000  14.8580000
 -26.8410000  -1.5310000  13.0050000 -26.8400000  -0.4610000  12.2200000
 -27.1580000   0.4240000  12.5800000 -26.5210000  -0.5370000  11.2670000
 -26.4220000  -2.6970000  12.5280000 -26.1060000  -2.7750000  11.5760000
 -26.3980000  -3.5000000  13.1400000 -25.1860000   0.1000000  18.5990000
 -26.0910000   0.5140000  19.3270000 -24.4390000  -0.9580000  18.9050000
 -23.7240000  -1.2700000  18.2640000 -24.6430000  -1.7190000  20.1330000
 -25.7090000  -1.9240000  20.2390000 -23.9190000  -3.0510000  20.0520000
 -24.1040000  -3.6260000  20.9590000 -24.2930000  -3.6200000  19.2020000
 -22.8460000  -2.8900000  19.9390000 -24.1840000  -0.9440000  21.3670000
 -24.7350000  -1.1200000  22.4560000 -23.1720000  -0.0950000  21.1980000
 -22.7400000   0.0080000  20.2900000 -22.6950000   0.7420000  22.2940000
 -22.7400000   0.1780000  23.2230000 -21.2530000   1.1960000  22.0480000
 -21.1790000   1.5750000  21.0270000 -21.0460000   2.0360000  22.7140000
 -20.1550000   0.1510000  22.2720000 -20.3390000  -0.7020000  21.6200000
 -18.7890000   0.7160000  21.9220000 -18.0260000  -0.0520000  22.0450000
 -18.7810000   1.0450000  20.8820000 -18.5570000   1.5630000  22.5690000
 -20.1720000  -0.3530000  23.7030000 -19.3260000  -1.0220000  23.8650000
 -20.1010000   0.4800000  24.3960000 -21.0790000  -0.9200000  23.9040000
 -23.6070000   1.9490000  22.4800000 -23.7710000   2.4470000  23.5980000
 -24.1950000   2.4210000  21.3830000 -23.9940000   2.0110000  20.4820000
 -25.1840000   3.4930000  21.4490000 -24.7560000   4.3330000  21.9950000
 -25.6120000   3.9410000  20.0450000 -25.5760000   3.1030000  19.3510000
 -26.6460000   4.2890000  20.0810000 -24.7740000   5.0970000  19.5140000
 -24.2870000   5.9070000  20.3310000 -24.6010000   5.1980000  18.2780000
 -26.3930000   3.0240000  22.2450000 -27.0090000   3.7980000  22.9750000
 -26.7190000   1.7430000  22.1010000 -26.1930000   1.1650000  21.4610000
 -27.8390000   1.1460000  22.8140000 -28.7240000   1.7540000  22.6270000
 -28.1070000  -0.2720000  22.2990000 -28.2480000  -0.2450000  21.2180000
 -27.2340000  -0.8900000  22.4940000 -29.3050000  -0.9600000  22.9420000
 -29.3390000  -1.9890000  22.5840000 -29.1830000  -0.9940000  24.0260000
 -30.6290000  -0.2960000  22.5940000 -30.6820000   0.4780000  21.6130000
 -31.6230000  -0.5490000  23.3060000 -27.5800000   1.1260000  24.3170000
 -28.4530000   1.4750000  25.1110000 -26.3720000   0.7250000  24.7000000
 -25.6910000   0.4530000  24.0040000 -25.9850000   0.6890000  26.1050000
 -26.6810000   0.0370000  26.6340000 -24.5870000   0.1030000  26.2530000
 -24.3210000   0.0530000  27.3090000 -24.5570000  -0.9040000  25.8340000
 -23.8600000   0.7270000  25.7320000 -26.0530000   2.0760000  26.7440000
 -26.5180000   2.2210000  27.8710000 -25.5960000   3.0950000  26.0230000
 -25.2140000   2.9360000  25.1000000 -25.6300000   4.4610000  26.5400000
 -25.2090000   4.4640000  27.5470000 -24.7780000   5.3920000  25.6710000
 -23.7690000   4.9910000  25.6000000 -25.1960000   5.3910000  24.6650000
 -24.6910000   6.8290000  26.1800000 -25.6910000   7.2030000  26.3980000
 -24.1140000   6.8430000  27.1050000 -23.9310000   7.9630000  24.9940000
 -25.1190000   7.8910000  23.6520000 -25.1550000   8.8590000  23.1500000
 -24.8130000   7.1280000  22.9340000 -26.1100000   7.6520000  24.0400000
 -27.0630000   4.9830000  26.6150000 -27.4760000   5.5510000  27.6270000
 -27.8170000   4.7780000  25.5390000 -27.4240000   4.3070000  24.7370000
 -29.1860000   5.2750000  25.4390000 -29.1700000   6.3410000  25.6740000
 -29.6950000   5.1070000  24.0040000 -29.0060000   5.5990000  23.3160000
 -29.7160000   4.0440000  23.7590000 -31.0720000   5.7070000  23.7960000
 -31.4130000   6.7340000  24.3850000 -31.8800000   5.0560000  22.9650000
 -32.7780000   5.4600000  22.7460000 -31.5320000   4.2550000  22.4610000
 -30.1470000   4.5890000  26.4160000 -31.1520000   5.1760000  26.8220000
 -29.8350000   3.3520000  26.7950000 -28.9990000   2.9110000  26.4330000
 -30.7030000   2.5910000  27.6900000 -31.7210000   2.6590000  27.3070000
 -30.2950000   1.1130000  27.7180000 -30.0880000   0.7770000  26.7070000
 -29.3860000   1.0110000  28.3140000 -31.3880000   0.1930000  28.2470000
 -31.9420000   0.6620000  29.0540000 -32.0980000  -0.0280000  27.4580000
 -30.8380000  -1.1090000  28.7950000 -30.1360000  -0.8840000  29.5870000
 -31.6610000  -1.6940000  29.2080000 -30.1320000  -1.9160000  27.7270000
 -30.8210000  -2.1040000  26.9030000 -29.2800000  -1.3480000  27.3500000
 -29.6540000  -3.2140000  28.2780000 -30.4340000  -3.7620000  28.6130000
 -29.1690000  -3.7430000  27.5650000 -29.0130000  -3.0510000  29.0420000
 -30.6860000   3.1650000  29.1080000 -31.5640000   2.8650000  29.9180000
 -29.6880000   3.9960000  29.4000000 -28.9940000   4.2210000  28.7000000
 -29.5540000   4.6080000  30.7180000 -29.6210000   3.8260000  31.4750000
 -28.1900000   5.2940000  30.8590000 -28.0520000   6.0100000  30.0500000
 -28.1950000   5.8620000  31.7910000 -26.9990000   4.3460000  30.9260000
 -27.1800000   3.6020000  31.7040000 -26.9020000   3.8220000  29.9770000
 -25.6970000   5.0670000  31.2280000 -25.0220000   5.5340000  30.1820000
 -25.3030000   5.2040000  32.3880000 -25.8760000   4.8750000  33.1520000
 -24.4610000   5.7310000  32.5580000 -30.6630000   5.6200000  31.0090000
 -30.8250000   6.0510000  32.1530000 -31.4210000   5.9950000  29.9800000
 -31.2240000   5.6380000  29.0560000 -32.4750000   7.0010000  30.1220000
 -32.3650000   7.5200000  31.0720000 -32.3800000   8.0290000  28.9930000
 -32.4620000   7.5240000  28.0290000 -33.2170000   8.7230000  29.0770000
 -31.1010000   8.8350000  29.0220000 -30.2740000   8.2100000  28.6820000
 -31.1970000   9.6750000  28.3330000 -30.7910000   9.3550000  30.4100000
 -29.7440000   9.0440000  30.9820000 -31.7030000  10.1490000  30.9640000
 -31.5310000  10.5440000  31.8760000 -32.5420000  10.3810000  30.4560000
 -33.8800000   6.4010000  30.1490000 -34.8560000   7.0970000  30.4340000
 -33.9790000   5.1100000  29.8580000 -33.1470000   4.5690000  29.6670000
 -35.2730000   4.4430000  29.8330000 -36.0110000   5.1220000  29.4010000
 -35.2190000   3.2070000  28.9380000 -34.4840000   2.5120000  29.3470000
 -36.1940000   2.7170000  28.9530000 -34.8550000   3.5140000  27.5050000
 -35.6200000   4.1310000  27.0410000 -33.9150000   4.0670000  27.4890000
 -34.6520000   2.2420000  26.7230000 -34.0370000   1.5740000  27.3270000
 -35.6040000   1.7560000  26.5410000 -33.9680000   2.5000000  25.4650000
 -33.9970000   3.4410000  25.1010000 -33.3200000   1.5690000  24.7790000
 -33.2760000   0.3280000  25.2430000 -33.7660000   0.0880000  26.0890000
 -32.7870000  -0.3740000  24.7030000 -32.7140000   1.8800000  23.6410000
 -32.7410000   2.8260000  23.2960000 -32.2250000   1.1620000  23.1220000
 -35.7350000   4.0480000  31.2280000 -35.1850000   3.1300000  31.8370000
 -36.7560000   4.7420000  31.7220000 -37.1430000   5.5100000  31.1940000
 -37.3320000   4.4400000  33.0270000 -36.5370000   4.4760000  33.7730000
 -38.3790000   5.4820000  33.3980000 -38.7820000   5.2640000  34.3880000
 -37.9210000   6.4720000  33.4150000 -39.1920000   5.4720000  32.6710000
 -37.9410000   3.0380000  33.0440000 -37.9880000   2.3840000  34.0870000
 -38.4040000   2.5860000  31.8820000 -38.3630000   3.1750000  31.0640000
 -38.9500000   1.2400000  31.7360000 -38.7650000   0.6530000  32.6360000
 -40.4660000   1.2920000  31.5530000 -40.7090000   1.7910000  30.6130000
 -40.8590000   0.2750000  31.5140000 -41.1620000   2.0430000  32.6660000
 -41.7650000   3.0930000  32.4380000 -41.0870000   1.5060000  33.8800000
 -41.5370000   1.9750000  34.6500000 -40.5730000   0.6520000  34.0290000
 -38.3170000   0.5160000  30.5590000 -38.9170000   0.4330000  29.4870000
 -37.0990000  -0.0160000  30.7560000 -36.3820000  -0.0230000  32.0430000
 -36.7830000  -0.8110000  32.6830000 -36.4050000   0.9370000  32.5510000
 -34.9740000  -0.3460000  31.6450000 -34.4390000  -0.8530000  32.4490000
 -34.4510000   0.5730000  31.3760000 -35.0960000  -1.2080000  30.4390000
 -35.2720000  -2.2380000  30.7570000 -34.2000000  -1.1570000  29.8190000
 -36.3230000  -0.6670000  29.6930000 -36.0170000   0.0820000  28.9610000
 -37.0760000  -1.8040000  29.0020000 -36.8440000  -2.0660000  27.8200000
 -37.9730000  -2.4640000  29.7270000 -38.1270000  -2.2240000  30.6950000
 -38.6580000  -3.6310000  29.1860000 -38.0950000  -4.0340000  28.3460000
 -38.7270000  -4.7330000  30.2360000 -39.3070000  -4.3810000  31.0910000
 -39.2350000  -5.6050000  29.8210000 -37.3610000  -5.1680000  30.6990000
 -36.7480000  -6.0290000  30.0270000 -36.8980000  -4.6380000  31.7320000
 -40.0550000  -3.3160000  28.6730000 -40.8350000  -4.2260000  28.3950000
 -40.3710000  -2.0300000  28.5560000 -39.7030000  -1.3180000  28.8130000
 -41.5560000  -1.6240000  27.8170000 -42.4160000  -2.0710000  28.3140000
 -41.7320000  -0.1020000  27.8360000 -41.6470000   0.2450000  28.8670000
 -40.9340000   0.3660000  27.2570000 -43.0810000   0.3450000  27.2890000
 -43.9600000   0.7200000  28.0950000 -43.2630000   0.3230000  26.0540000
 -41.3940000  -2.1470000  26.3930000 -40.2990000  -2.0950000  25.8310000
 -42.4750000  -2.6800000  25.8090000 -43.7980000  -2.8860000  26.4210000
 -44.1540000  -2.0010000  26.9490000 -43.7660000  -3.7520000  27.0830000
 -44.6650000  -3.1650000  25.2390000 -44.9970000  -2.2190000  24.8080000
 -45.5270000  -3.7730000  25.5140000 -43.7900000  -3.8680000  24.2630000
 -44.1630000  -3.7630000  23.2430000 -43.7370000  -4.9260000  24.5260000
 -42.4040000  -3.2380000  24.4540000 -41.6490000  -4.0060000  24.4430000
 -42.1220000  -2.1900000  23.3720000 -41.9840000  -2.5460000  22.2030000
 -42.0330000  -0.9220000  23.7590000 -42.2000000  -0.6730000  24.7240000
 -41.6610000   0.1380000  22.8260000 -42.3020000   0.0710000  21.9460000
 -41.8650000   1.5050000  23.4600000 -41.5760000   2.2840000  22.7540000
 -42.9160000   1.6360000  23.7180000 -41.2570000   1.5920000  24.3610000
 -40.2130000  -0.0280000  22.3780000 -39.8220000   0.4410000  21.3090000
 -39.4250000  -0.7010000  23.2090000 -39.8090000  -1.0740000  24.0670000
 -38.0070000  -0.8910000  22.9440000 -37.6840000  -0.1870000  22.1800000
 -37.1910000  -0.6160000  24.2090000 -37.4230000  -1.3800000  24.9530000
 -36.1280000  -0.6840000  23.9750000 -37.4510000   0.7530000  24.7960000
 -37.1440000   1.9020000  24.0780000 -36.7190000   1.8130000  23.0880000
 -37.3790000   3.1580000  24.5980000 -37.1470000   4.0390000  24.0170000
 -37.9250000   3.2820000  25.8570000 -38.1520000   4.5400000  26.3680000
 -38.7030000   4.5260000  27.1560000 -38.2390000   2.1560000  26.5960000
 -38.6760000   2.2530000  27.5780000 -38.0010000   0.9000000  26.0630000
 -38.2720000   0.0230000  26.6340000 -37.7270000  -2.2930000  22.4230000
 -36.5930000  -2.7680000  22.4730000 -38.7660000  -2.9500000  21.9180000
 -39.6860000  -2.5320000  21.9240000 -38.6190000  -4.2860000  21.3530000
 -38.0920000  -4.9200000  22.0670000 -39.9890000  -4.9170000  21.0730000
 -40.6840000  -4.1680000  20.6960000 -39.8660000  -5.6690000  20.2910000
 -40.5720000  -5.6280000  22.2920000 -40.1590000  -5.3180000  23.4290000
 -41.4460000  -6.5010000  22.1100000 -37.7800000  -4.2380000  20.0800000
 -36.9890000  -5.1440000  19.8240000 -37.9410000  -3.1780000  19.2900000
 -38.6090000  -2.4600000  19.5340000 -37.1440000  -3.0150000  18.0760000
 -37.2290000  -3.9270000  17.4840000 -37.6720000  -1.8500000  17.2270000
 -37.1580000  -1.8760000  16.2650000 -38.7360000  -2.0060000  17.0420000
 -37.4660000  -0.4650000  17.8310000 -38.0500000  -0.3750000  18.7480000
 -36.4140000  -0.3260000  18.0680000 -37.8450000   0.6600000  16.8780000
 -38.7540000   0.4610000  16.0430000 -37.2230000   1.7420000  16.9580000
 -35.6660000  -2.8050000  18.4320000 -34.7690000  -3.2330000  17.7060000
 -35.4210000  -2.1610000  19.5660000 -36.1880000  -1.8050000  20.1200000
 -34.0640000  -1.9560000  20.0460000 -33.4600000  -1.5650000  19.2250000
 -34.0540000  -0.9230000  21.1710000 -34.5650000  -1.2980000  22.0560000
 -33.0140000  -0.7540000  21.4160000 -34.6740000   0.3960000  20.7490000
 -35.8900000   0.4950000  20.5790000 -33.8430000   1.4170000  20.5820000
 -32.8490000   1.2780000  20.7000000 -34.2090000   2.2940000  20.2430000
 -33.4480000  -3.2720000  20.5130000 -32.2860000  -3.5540000  20.2230000
 -34.2330000  -4.0810000  21.2230000 -35.1830000  -3.8010000  21.4300000
 -33.7710000  -5.3870000  21.6920000 -32.8420000  -5.2480000  22.2470000
 -34.8020000  -6.0280000  22.6290000 -35.7350000  -6.1590000  22.0780000
 -34.4410000  -7.0190000  22.9080000 -35.0980000  -5.2520000  23.9120000
 -34.1750000  -5.1780000  24.4880000 -35.4200000  -4.2490000  23.7100000
 -36.1430000  -5.9830000  24.7600000 -36.9840000  -6.2580000  24.1210000
 -35.7140000  -6.8960000  25.1750000 -36.6990000  -5.1120000  25.8830000
 -37.0800000  -4.1830000  25.4550000 -37.5330000  -5.6350000  26.3530000
 -35.6810000  -4.8000000  26.9200000 -36.1000000  -4.2010000  27.6210000
 -35.3770000  -5.6550000  27.3660000 -34.8940000  -4.3280000  26.5010000
 -33.4820000  -6.3310000  20.5230000 -32.6070000  -7.1900000  20.6090000
 -34.2260000  -6.1710000  19.4320000 -34.9540000  -5.4690000  19.4210000
 -34.0680000  -7.0360000  18.2650000 -33.9420000  -8.0610000  18.6110000
 -35.3290000  -7.0060000  17.3990000 -36.1930000  -7.2420000  18.0230000
 -35.4670000  -5.9840000  17.0470000 -35.2990000  -7.9920000  16.2410000
 -34.2880000  -8.2860000  15.9740000 -35.8250000  -8.8990000  16.5400000
 -35.9660000  -7.4180000  14.9980000 -35.9990000  -8.1820000  14.2200000
 -36.9950000  -7.1550000  15.2460000 -35.2870000  -6.2160000  14.5080000
 -35.6300000  -5.3250000  14.8370000 -34.2600000  -6.2250000  13.6620000
 -33.7790000  -7.3740000  13.2070000 -34.1760000  -8.2510000  13.5080000
 -32.9930000  -7.3860000  12.5730000 -33.7080000  -5.0830000  13.2720000
 -34.0540000  -4.2060000  13.6340000 -32.9310000  -5.0890000  12.6300000
 -32.8550000  -6.6380000  17.4240000 -32.1520000  -7.4950000  16.8920000
 -32.6270000  -5.3350000  17.2910000 -33.2470000  -4.6660000  17.7280000
 -31.4680000  -4.8310000  16.5580000 -31.4620000  -5.2930000  15.5700000
 -31.5490000  -3.3140000  16.3890000 -32.4620000  -3.0670000  15.8460000
 -31.6110000  -2.8490000  17.3740000 -30.3640000  -2.7170000  15.6510000
 -30.4900000  -1.6350000  15.6490000 -29.4340000  -2.9290000  16.1770000
 -30.2790000  -3.1840000  14.2080000 -30.9370000  -2.6290000  13.3280000
 -29.4680000  -4.2070000  13.9580000 -29.3700000  -4.5470000  13.0150000
 -28.9420000  -4.6260000  14.7140000 -30.1790000  -5.2060000  17.2780000
 -29.1840000  -5.5880000  16.6550000 -30.2210000  -5.0930000  18.6020000
 -31.0630000  -4.7520000  19.0450000 -29.0830000  -5.3900000  19.4580000
 -28.2450000  -4.7660000  19.1430000 -29.4210000  -5.0340000  20.9040000
 -29.6470000  -3.9680000  20.9560000 -30.3200000  -5.5730000  21.2060000
 -28.3220000  -5.3340000  21.8770000 -27.2750000  -4.4450000  22.0510000
 -27.2500000  -3.5230000  21.4860000 -26.2610000  -4.7130000  22.9530000
 -25.4510000  -4.0100000  23.0750000 -26.2910000  -5.8740000  23.6950000
 -25.5030000  -6.0870000  24.4020000 -27.3330000  -6.7670000  23.5340000
 -27.3600000  -7.6750000  24.1200000 -28.3420000  -6.4950000  22.6300000
 -29.1510000  -7.2010000  22.5080000 -28.6500000  -6.8500000  19.3700000
 -27.4610000  -7.1380000  19.2610000 -29.6080000  -7.7710000  19.4210000
 -30.5730000  -7.4940000  19.5340000 -29.2770000  -9.1930000  19.3740000
 -28.5210000  -9.3970000  20.1340000 -30.5020000 -10.0660000  19.6780000
 -30.1790000 -11.1070000  19.7180000 -30.8870000  -9.7980000  20.6630000
 -31.6250000  -9.9500000  18.6560000 -32.0000000  -8.9430000  18.7330000
 -31.2530000 -10.1310000  17.6480000 -32.7950000 -10.8800000  18.9380000
 -33.4090000 -10.8260000  20.0060000 -33.1140000 -11.7350000  17.9700000
 -33.8810000 -12.3740000  18.1140000 -32.5890000 -11.7410000  17.1090000
 -28.6940000  -9.5540000  18.0090000 -27.9520000 -10.5300000  17.8820000
 -29.0240000  -8.7580000  16.9940000 -29.6410000  -7.9740000  17.1460000
 -28.4920000  -8.9710000  15.6520000 -28.3880000 -10.0380000  15.5160000
 -29.4650000  -8.4590000  14.5880000 -29.8180000  -7.4560000  14.8300000
 -28.8780000  -8.3950000  13.6740000 -30.6510000  -9.3870000  14.3640000
 -30.3340000 -10.4190000  14.5260000 -31.4360000  -9.1630000  15.0840000
 -31.2100000  -9.3090000  12.9560000 -30.5550000  -8.7000000  12.0820000
 -32.3080000  -9.8610000  12.7240000 -27.1310000  -8.3090000  15.4780000
 -26.2730000  -8.8340000  14.7720000 -26.9360000  -7.1570000  16.1140000
 -27.6740000  -6.7580000  16.6770000 -25.6270000  -6.5160000  16.1180000
 -25.3100000  -6.3530000  15.0890000 -25.6760000  -5.1770000  16.8570000
 -26.2860000  -5.2630000  17.7560000 -24.6630000  -4.9130000  17.1630000
 -26.1880000  -4.0450000  15.9840000 -25.9940000  -4.1050000  14.7500000
 -26.7750000  -3.0890000  16.5340000 -24.5890000  -7.4390000  16.7590000
 -23.4810000  -7.6070000  16.2450000 -24.9680000  -8.0460000  17.8770000
 -25.8840000  -7.8570000  18.2610000 -24.1020000  -8.9770000  18.5890000
 -23.1270000  -8.5170000  18.7330000 -24.6960000  -9.3170000  19.9700000
 -25.7820000  -9.3870000  19.8860000 -24.2040000 -10.6670000  20.4770000
 -24.7060000 -10.9370000  21.4050000 -24.4500000 -11.4850000  19.8020000
 -23.1330000 -10.6230000  20.6540000 -24.3450000  -8.2050000  20.9590000
 -23.2970000  -7.9250000  20.8470000 -24.9540000  -7.3280000  20.7350000
 -24.5510000  -8.5840000  22.3830000 -24.4170000  -7.7010000  23.0010000
 -25.5610000  -8.9680000  22.5300000 -23.8140000  -9.3190000  22.7060000
 -23.8640000 -10.2510000  17.7790000 -22.7630000 -10.8030000  17.7870000
 -24.8940000 -10.7020000  17.0680000 -25.7820000 -10.2220000  17.1160000
 -24.7650000 -11.8220000  16.1370000 -24.4900000 -12.7150000  16.7000000
 -26.1040000 -12.0850000  15.4350000 -26.5150000 -13.0270000  15.8000000
 -26.7970000 -11.3110000  15.7340000 -26.0340000 -12.1390000  13.9090000
 -25.3130000 -11.4960000  13.4180000 -25.8350000 -13.1600000  13.5810000
 -27.3240000 -11.6220000  13.2700000 -28.0880000 -12.4000000  13.3040000
 -27.6860000 -10.7550000  13.7970000 -27.0960000 -11.1640000  11.8320000
 -26.3200000 -10.3980000  11.8240000 -26.7490000 -12.0150000  11.2430000
 -28.3350000 -10.6080000  11.2140000 -28.1500000 -10.3260000  10.2620000
 -29.0610000 -11.3100000  11.2150000 -28.6620000  -9.8050000  11.7360000
 -23.6630000 -11.5600000  15.1100000 -22.9100000 -12.4670000  14.7600000
 -23.5650000 -10.3110000  14.6500000 -24.2150000  -9.6110000  14.9820000
 -22.5690000  -9.9060000  13.6570000 -22.5590000 -10.6440000  12.8530000
 -22.9110000  -8.5220000  13.0440000 -23.0800000  -7.8160000  13.8490000
 -21.7580000  -8.0010000  12.1970000 -22.0760000  -7.1200000  11.6390000
 -20.9180000  -7.7050000  12.8270000 -21.4360000  -8.7640000  11.4880000
 -24.1860000  -8.6020000  12.2200000 -24.9880000  -9.0630000  12.7820000
 -24.4960000  -7.6010000  11.9170000 -24.0080000  -9.2050000  11.3290000
 -21.1670000  -9.8530000  14.2610000 -20.2010000 -10.3190000  13.6550000
 -21.0660000  -9.2840000  15.4590000 -21.8910000  -8.9100000  15.9080000
 -19.7890000  -9.1640000  16.1510000 -19.0770000  -8.6720000  15.4870000
 -19.9370000  -8.3160000  17.4180000 -20.9190000  -8.4860000  17.8580000
 -19.1920000  -8.6400000  18.1470000 -19.7120000  -6.8270000  17.1940000
 -18.7010000  -6.6780000  16.8290000 -20.4020000  -6.4730000  16.4270000
 -19.9320000  -5.8190000  18.6730000 -21.7140000  -5.7360000  18.7730000
 -22.0100000  -5.4830000  19.7920000 -22.0800000  -4.9690000  18.0910000
 -22.1490000  -6.6920000  18.4970000 -19.2160000 -10.5260000  16.5050000
 -18.0000000 -10.7280000  16.4610000 -20.0950000 -11.4600000  16.8510000
 -21.0840000 -11.2550000  16.8640000 -19.6570000 -12.7940000  17.2420000
 -18.7710000 -12.7030000  17.8720000 -20.7430000 -13.4970000  18.0640000
 -21.7350000 -13.2150000  17.7090000 -20.6540000 -14.5750000  17.9220000
 -20.6110000 -13.2280000  19.5580000 -20.0270000 -14.0220000  20.2970000
 -21.1490000 -12.1000000  20.0050000 -21.0840000 -11.8710000  20.9850000
 -21.6360000 -11.4900000  19.3630000 -19.2610000 -13.6550000  16.0440000
 -18.4190000 -14.5430000  16.1700000 -19.8500000 -13.3910000  14.8820000
 -20.5690000 -12.6840000  14.8140000 -19.5200000 -14.1790000  13.6990000
 -19.3850000 -15.2190000  13.9920000 -20.6580000 -14.1270000  12.6620000
 -21.1150000 -13.1360000  12.6580000 -20.2430000 -14.3030000  11.6690000
 -21.7240000 -15.2110000  12.9050000 -21.3560000 -16.3670000  13.2060000
 -22.9350000 -14.9210000  12.8120000 -18.1880000 -13.7090000  13.1100000
 -17.5730000 -14.4040000  12.2960000 -17.7290000 -12.5410000  13.5490000
 -18.2760000 -11.9980000  14.2020000 -16.3790000 -12.0950000  13.2220000
 -16.1460000 -12.3720000  12.1930000 -16.2500000 -10.5820000  13.3410000
 -16.9270000 -10.1010000  12.6330000 -16.5660000 -10.2860000  14.3410000
 -14.8060000 -10.1480000  13.0910000 -14.1070000 -10.9690000  13.0740000
 -14.6540000  -9.5250000  11.7120000 -13.5980000  -9.3750000  11.4890000
 -15.0850000 -10.1790000  10.9540000 -15.1670000  -8.5680000  11.7260000
 -14.3150000  -9.2270000  14.1840000 -13.2300000  -9.1580000  14.1340000
 -14.7410000  -8.2370000  14.0610000 -14.5720000  -9.6260000  15.1660000
 -15.3660000 -12.7700000  14.1440000 -14.2890000 -13.1820000  13.7080000
 -15.7190000 -12.8700000  15.4230000 -16.6100000 -12.5050000  15.7300000
 -14.9020000 -13.5990000  16.3840000 -13.9120000 -13.1420000  16.4140000
 -15.5100000 -13.5530000  17.8020000 -16.5200000 -13.9540000  17.7700000
 -14.6950000 -14.3950000  18.7600000 -15.0400000 -14.2330000  19.7820000
 -14.8140000 -15.4540000  18.5350000 -13.6440000 -14.1230000  18.6840000
 -15.5950000 -12.1200000  18.2980000 -16.2650000 -12.0800000  19.1570000
 -14.6150000 -11.7610000  18.6000000 -15.9690000 -11.4450000  17.5380000
 -14.7490000 -15.0480000  15.9230000 -13.6730000 -15.6330000  16.0490000
 -15.8220000 -15.6130000  15.3700000 -16.6900000 -15.0980000  15.3060000
 -15.7790000 -16.9660000  14.8160000 -15.4880000 -17.6600000  15.6050000
 -17.1520000 -17.3840000  14.2680000 -17.5550000 -16.5970000  13.6360000
 -17.0230000 -18.2750000  13.6520000 -18.1540000 -17.7310000  15.3710000
 -17.7220000 -17.9550000  16.5220000 -19.3730000 -17.7910000  15.0840000
 -14.7150000 -17.0640000  13.7200000 -13.9780000 -18.0440000  13.6570000
 -14.6260000 -16.0400000  12.8740000 -15.2650000 -15.2620000  12.9630000
 -13.6040000 -15.9920000  11.8240000 -13.6880000 -16.8910000  11.2120000
 -13.8100000 -14.7710000  10.9200000 -13.9790000 -13.8730000  11.5000000
 -12.8840000 -14.6130000  10.3640000 -14.9200000 -14.9140000   9.8900000
 -14.6950000 -15.7580000   9.2360000 -15.8630000 -15.1080000  10.3990000
 -15.0530000 -13.6510000   9.0530000 -15.2680000 -12.8100000   9.7150000
 -14.1110000 -13.4610000   8.5370000 -16.1660000 -13.7690000   8.0280000
 -15.9290000 -14.5770000   7.3330000 -17.0920000 -14.0200000   8.5490000
 -16.3580000 -12.4980000   7.2770000 -15.5270000 -12.2930000   6.7410000
 -17.1500000 -12.5920000   6.6560000 -16.5320000 -11.7460000   7.9290000
 -12.1850000 -15.9630000  12.3960000 -11.3050000 -16.6830000  11.9250000
 -11.9690000 -15.1250000  13.4060000 -12.7290000 -14.5570000  13.7540000
 -10.6450000 -14.9630000  13.9980000  -9.9530000 -14.6610000  13.2090000
 -10.6520000 -13.8630000  15.0850000 -11.4350000 -14.0840000  15.8120000
  -9.3260000 -13.8240000  15.8260000  -9.3340000 -13.0690000  16.6100000
  -9.1340000 -14.7650000  16.3380000  -8.5140000 -13.6230000  15.1260000
 -10.9430000 -12.5000000  14.4520000 -10.2380000 -12.3210000  13.6390000
 -11.9410000 -12.5030000  14.0270000 -10.8520000 -11.3440000  15.4170000
 -11.2670000 -10.4570000  14.9390000 -11.4250000 -11.5660000  16.3180000
  -9.8150000 -11.1270000  15.6730000 -10.1220000 -16.2710000  14.5950000
  -8.9600000 -16.6280000  14.3980000 -10.9860000 -16.9910000  15.3070000
 -11.9360000 -16.6650000  15.4240000 -10.5910000 -18.2440000  15.9430000
  -9.6240000 -18.0940000  16.4250000 -11.6040000 -18.6750000  17.0230000
 -12.5420000 -18.9480000  16.5340000 -11.0900000 -19.8830000  17.7980000
 -10.1770000 -19.6250000  18.3360000 -11.8400000 -20.2410000  18.5030000
 -10.8860000 -20.7160000  17.1280000 -11.8840000 -17.5180000  17.9800000
 -10.9410000 -17.2120000  18.4370000 -12.2620000 -16.6520000  17.4760000
 -12.8370000 -17.8760000  19.0990000 -13.1370000 -16.9670000  19.6190000
 -13.7290000 -18.3530000  18.6930000 -12.3580000 -18.5330000  19.8250000
 -10.4460000 -19.3610000  14.9150000  -9.5600000 -20.2080000  15.0240000
 -11.3220000 -19.3600000  13.9180000 -12.0340000 -18.6440000  13.8670000
 -11.2710000 -20.3640000  12.8630000 -11.3470000 -21.3520000  13.3180000
 -12.4420000 -20.1930000  11.9120000 -12.3680000 -20.9260000  11.1080000
 -13.3780000 -20.3560000  12.4460000 -12.4450000 -19.1920000  11.4800000
  -9.9520000 -20.2870000  12.1030000  -9.2210000 -21.2750000  12.0120000
  -9.6520000 -19.1030000  11.5720000 -10.3080000 -18.3380000  11.6550000
  -8.4130000 -18.8580000  10.8350000  -8.4080000 -19.4820000   9.9400000
  -8.3280000 -17.3910000  10.4090000  -8.4460000 -16.7490000  11.2840000
  -7.3430000 -17.2040000   9.9790000  -9.3700000 -17.0220000   9.3680000
 -10.0830000 -17.9270000   8.8810000  -9.4820000 -15.8210000   9.0440000
  -7.1840000 -19.2220000  11.6570000  -6.1440000 -19.5900000  11.1100000
  -7.3160000 -19.1180000  12.9740000  -8.1930000 -18.7920000  13.3580000
  -6.2250000 -19.4130000  13.8860000  -5.3530000 -18.9260000  13.4540000
  -6.5430000 -18.8600000  15.2710000  -6.9200000 -17.8460000  15.1610000
  -7.3070000 -19.4590000  15.7630000  -5.3400000 -18.7840000  16.1690000
  -5.5950000 -18.2040000  17.0540000  -5.0470000 -19.7850000  16.4890000
  -4.1890000 -18.1420000  15.4270000  -3.6970000 -18.8960000  14.8100000
  -4.5770000 -17.3720000  14.7620000  -3.1970000 -17.6130000  16.3470000
  -2.6990000 -18.2680000  16.9300000  -2.8950000 -16.3260000  16.4380000
  -3.5080000 -15.4470000  15.6590000  -3.2750000 -14.4670000  15.7330000
  -4.2140000 -15.7420000  15.0030000  -1.9820000 -15.9190000  17.3040000
  -1.5440000 -16.5640000  17.9430000  -1.7550000 -14.9360000  17.3640000
  -5.9290000 -20.9070000  13.9800000  -4.7690000 -21.3140000  14.0110000
  -6.9790000 -21.7220000  14.0260000  -7.9150000 -21.3430000  13.9720000
  -6.8180000 -23.1720000  14.1030000  -5.9450000 -23.4040000  14.7150000
  -8.0420000 -23.8100000  14.7660000  -8.9380000 -23.5130000  14.2180000
  -7.9540000 -24.8960000  14.7140000  -8.1920000 -23.4210000  16.2320000
  -7.3140000 -23.7690000  16.7780000  -8.2390000 -22.3350000  16.3180000
  -9.4410000 -24.0060000  16.8770000 -10.3220000 -23.6340000  16.3520000
  -9.4130000 -25.0940000  16.8010000  -9.5230000 -23.6040000  18.3480000
  -8.6480000 -23.9990000  18.8660000  -9.5040000 -22.5150000  18.4190000
 -10.7510000 -24.1140000  19.0120000 -11.5680000 -23.6810000  18.6030000
 -10.8140000 -25.1160000  18.8960000 -10.7240000 -23.9010000  20.0010000
  -6.5720000 -23.7770000  12.7210000  -6.5160000 -24.9960000  12.5620000
  -6.4300000 -22.9090000  11.7240000  -6.5430000 -21.9200000  11.8970000
  -5.9500000 -23.3110000  10.4080000  -6.1800000 -24.3620000  10.2330000
  -6.6160000 -22.4930000   9.3090000  -6.3250000 -22.8830000   8.3330000
  -7.7000000 -22.5590000   9.4050000  -6.3130000 -21.4490000   9.3730000
  -4.4380000 -23.1350000  10.3760000  -3.7970000 -23.3140000   9.3400000
  -3.8960000 -22.7550000  11.5310000  -4.4990000 -22.5690000  12.3170000
  -2.4620000 -22.6150000  11.7640000  -2.3270000 -22.4100000  12.8260000
  -1.7390000 -23.9300000  11.4500000  -2.1750000 -24.7310000  12.0470000
  -1.8360000 -24.1840000  10.3960000  -0.3580000 -23.8350000  11.7440000
   0.0460000 -24.6900000  11.5790000  -1.8160000 -21.4730000  10.9800000
  -2.3730000 -20.9500000  10.0140000  -0.6310000 -21.0920000  11.4440000
  -0.2520000 -21.5740000  12.2470000   0.2190000 -20.1030000  10.8060000
   0.3480000 -20.3370000   9.7490000  -0.1990000 -19.1040000  10.9320000
   1.5410000 -20.2220000  11.5360000   2.0050000 -19.2710000  12.1700000
   2.1460000 -21.4060000  11.4120000   1.7200000 -22.0850000  10.7990000
   3.1660000 -21.9210000  12.3390000   3.1300000 -23.0100000  12.3190000
   4.5920000 -21.4950000  11.9310000   5.3500000 -21.5670000  12.7090000
   4.9030000 -22.2670000  11.2260000   4.7430000 -20.2060000  11.1320000
   3.9890000 -20.1420000  10.3490000   4.6180000 -19.3560000  11.8040000
   6.0940000 -20.0960000  10.4480000   6.1310000 -20.1430000   9.1990000
   7.1140000 -19.9690000  11.1580000   2.8550000 -21.4970000  13.7750000
   1.7070000 -21.5870000  14.2230000   3.8700000 -21.0510000  14.5020000
   4.7880000 -20.9370000  14.0990000   3.6490000 -20.6160000  15.8700000
   2.7800000 -21.1280000  16.2860000   4.8380000 -20.9700000  16.7640000
   4.5090000 -20.8640000  17.7990000   5.1100000 -22.0150000  16.6080000
   6.0560000 -20.0830000  16.5650000   6.5550000 -20.3710000  15.6390000
   5.7880000 -19.0310000  16.4920000   7.0390000 -20.1910000  17.7160000
   7.4700000 -19.1830000  18.2740000   7.3940000 -21.4190000  18.0790000
   8.0460000 -21.5340000  18.8400000   7.0210000 -22.2190000  17.5920000
   3.3950000 -19.1160000  15.9100000   3.7380000 -18.3910000  14.9740000
   2.7790000 -18.6670000  16.9990000   2.5140000 -19.3180000  17.7240000
   2.5870000 -17.2470000  17.2630000   3.3990000 -16.6780000  16.8070000
   1.2550000 -16.7460000  16.6910000   0.4390000 -17.1550000  17.2840000
   1.2220000 -15.6570000  16.7460000   1.0670000 -17.1610000  15.3460000
   1.8730000 -16.9920000  14.8510000   2.6350000 -17.0320000  18.7700000
   2.3680000 -17.9580000  19.5320000   2.9980000 -15.8280000  19.2030000
   3.2560000 -15.1080000  18.5440000   2.8770000 -15.4650000  20.6140000
   2.1810000 -16.1390000  21.1130000   4.2280000 -15.5570000  21.3480000
   4.7060000 -16.4970000  21.0690000   4.8960000 -14.7540000  21.0310000
   4.0760000 -15.5580000  22.8800000   3.6770000 -16.5910000  23.4590000
   4.3460000 -14.5260000  23.5310000   2.3000000 -14.0580000  20.7160000
   2.9260000 -13.1540000  21.2700000   1.1070000 -13.8730000  20.1590000
   0.6250000 -14.6410000  19.7150000   0.3870000 -12.6160000  20.3220000
   1.0640000 -11.8190000  20.6300000  -0.2480000 -12.1640000  19.0020000
  -0.8750000 -11.2880000  19.1380000   0.5580000 -11.8780000  18.3240000
  -1.0580000 -13.2580000  18.3340000  -1.4420000 -14.2250000  19.0220000
  -1.3130000 -13.1540000  17.1140000  -0.6750000 -12.7540000  21.4060000
  -0.6870000 -13.7300000  22.1560000  -1.5660000 -11.7740000  21.4710000
  -1.5120000 -11.0060000  20.8170000  -2.6060000 -11.7320000  22.4910000
  -2.1020000 -11.7390000  23.4540000  -3.4050000 -10.4360000  22.3490000
  -2.6840000  -9.6190000  22.2700000  -3.9620000 -10.4630000  21.4200000
  -4.4010000 -10.0690000  23.4440000  -5.2140000 -10.7930000  23.4350000
  -3.7320000 -10.1150000  24.8030000  -4.4440000  -9.8080000  25.5700000
  -3.4040000 -11.1250000  25.0450000  -2.8850000  -9.4310000  24.8210000
  -4.9740000  -8.6870000  23.1830000  -4.1840000  -7.9350000  23.1770000
  -5.4980000  -8.6740000  22.2260000  -5.6780000  -8.4590000  23.9740000
  -3.5410000 -12.9470000  22.4320000  -3.9760000 -13.4480000  23.4640000
  -3.8290000 -13.4240000  21.2240000  -3.4410000 -12.9740000  20.4050000
  -4.7360000 -14.5550000  21.0250000  -5.6140000 -14.3910000  21.6480000
  -5.2030000 -14.6070000  19.5670000  -5.6600000 -13.6540000  19.3440000
  -4.3080000 -14.6590000  18.9440000  -6.1160000 -15.7590000  19.1330000
  -5.5860000 -16.7010000  19.2700000  -7.3920000 -15.8080000  19.9620000
  -8.0290000 -16.6200000  19.6120000  -7.1620000 -15.9880000  21.0110000
  -7.9370000 -14.8680000  19.8760000  -6.4460000 -15.6400000  17.6560000
  -7.1410000 -16.4270000  17.3630000  -6.8990000 -14.6740000  17.4410000
  -5.5440000 -15.7390000  17.0700000  -4.1080000 -15.8930000  21.4120000
  -4.7970000 -16.7930000  21.8890000  -2.8040000 -16.0280000  21.2000000
  -2.2750000 -15.2760000  20.7760000  -2.1080000 -17.2570000  21.5690000
  -2.6130000 -18.1000000  21.0940000  -0.6480000 -17.2570000  21.1190000
  -0.1350000 -16.3890000  21.5360000   0.0370000 -18.5230000  21.6080000
  -0.0220000 -18.6480000  22.6870000  -0.3870000 -19.3970000  21.1140000
   1.0980000 -18.4780000  21.4080000  -0.5840000 -17.1970000  19.6890000
   0.3450000 -17.2480000  19.4460000  -2.1340000 -17.4650000  23.0710000
  -2.5260000 -18.5260000  23.5540000  -1.7030000 -16.4420000  23.8020000
  -1.3880000 -15.5970000  23.3440000  -1.7330000 -16.4750000  25.2560000
  -1.1280000 -17.3150000  25.6010000  -1.1430000 -15.1780000  25.8410000
  -1.4220000 -14.3260000  25.2180000  -1.5820000 -15.0110000  26.8260000
   0.3480000 -15.2050000  26.0230000   1.1050000 -15.4020000  27.1320000
   0.7580000 -15.5730000  28.0660000   2.4220000 -15.3220000  26.7490000
   3.2790000 -15.4580000  27.3910000   2.4760000 -15.0740000  25.4550000
   3.3190000 -15.0140000  24.8950000   1.2440000 -15.0020000  24.9910000
   0.9820000 -14.8210000  23.9560000  -3.1690000 -16.7110000  25.7500000
  -3.3680000 -17.3200000  26.8000000  -4.1600000 -16.2570000  24.9770000
  -3.9430000 -15.7470000  24.1320000  -5.5780000 -16.4790000  25.3020000
  -5.7570000 -16.1460000  26.3260000  -6.4950000 -15.6780000  24.3690000
  -6.1520000 -15.7010000  23.3530000  -7.4790000 -16.1510000  24.3770000
  -6.7270000 -14.2240000  24.7440000  -7.1290000 -14.1980000  25.7560000
  -5.8050000 -13.6630000  24.7550000  -7.9430000 -13.4300000  23.6660000
  -7.7900000 -11.7260000  24.1840000  -8.7630000 -11.3830000  24.5200000
  -7.0630000 -11.6330000  24.9910000  -7.4780000 -11.1180000  23.3350000
  -5.9890000 -17.9450000  25.2190000  -6.8110000 -18.4130000  26.0030000
  -5.4310000 -18.6570000  24.2470000  -4.7740000 -18.2160000  23.6190000
  -5.8420000 -20.0280000  23.9660000  -6.8900000 -20.1520000  24.2410000
  -5.7140000 -20.3140000  22.4660000  -4.6900000 -20.0700000  22.1840000
  -5.8380000 -21.3860000  22.3000000  -6.6530000 -19.5690000  21.5150000
  -6.7270000 -18.5270000  21.8220000  -6.1150000 -19.6000000  20.0940000
  -6.7950000 -19.0630000  19.4310000  -5.1400000 -19.1120000  20.0540000
  -6.0170000 -20.6300000  19.7490000  -8.0450000 -20.1730000  21.5680000
  -8.7090000 -19.6240000  20.9010000  -8.0160000 -21.2200000  21.2650000
  -8.4470000 -20.1040000  22.5790000  -5.0440000 -21.0720000  24.7480000
  -5.5600000 -22.1490000  25.0560000  -3.7910000 -20.7530000  25.0680000
  -3.4260000 -19.8520000  24.7940000  -2.8710000 -21.7400000  25.6280000
  -3.3740000 -22.7030000  25.7130000  -1.6880000 -21.9400000  24.6820000
  -1.0610000 -21.0470000  24.6970000  -1.0840000 -22.7770000  25.0330000
  -2.1220000 -22.2190000  23.2590000  -2.3740000 -23.3650000  22.8860000
  -2.2100000 -21.1680000  22.4530000  -2.4920000 -21.3040000  21.4940000
  -2.0100000 -20.2440000  22.8070000  -2.3420000 -21.3980000  27.0170000
  -1.7940000 -22.2580000  27.7060000  -2.4910000 -20.1430000  27.4240000
  -2.9670000 -19.4710000  26.8390000  -2.0180000 -19.7180000  28.7290000
  -0.9880000 -20.0530000  28.8620000  -2.0180000 -18.6290000  28.7700000
  -2.8690000 -20.2400000  29.8730000  -4.0730000 -20.4510000  29.7190000
  -2.2390000 -20.4540000  31.0250000  -1.2490000 -20.2690000  31.1020000
  -2.9540000 -20.8790000  32.2260000  -4.0280000 -20.8330000  32.0540000
  -2.6020000 -22.3240000  32.5910000  -1.5710000 -22.3670000  32.9470000
  -3.2540000 -22.6210000  33.4140000  -2.7600000 -23.3120000  31.4470000
  -3.7040000 -23.1090000  30.9420000  -1.9460000 -23.1870000  30.7320000
  -2.7830000 -24.7490000  31.9450000  -1.8230000 -25.0030000  32.3970000
  -3.5670000 -24.8410000  32.6920000  -3.0980000 -25.7180000  30.8140000
  -3.9880000 -25.3570000  30.2950000  -2.2680000 -25.7350000  30.1060000
  -3.3690000 -27.0950000  31.3170000  -3.7330000 -27.6710000  30.5700000
  -2.5140000 -27.5050000  31.6680000  -4.0460000 -27.0500000  32.0680000
  -2.6410000 -19.9490000  33.3960000  -1.5270000 -19.4450000  33.5170000
  -3.6350000 -19.7180000  34.2460000  -4.5330000 -20.1470000  34.1010000
  -3.4570000 -18.8760000  35.4220000  -3.0240000 -17.9360000  35.0910000
  -4.8170000 -18.5130000  36.0310000  -5.3780000 -17.9340000  35.2970000
  -5.3690000 -19.4270000  36.2370000  -4.6940000 -17.6890000  37.3050000
  -3.6990000 -16.9470000  37.4500000  -5.6030000 -17.7770000  38.1600000
  -2.5820000 -19.5900000  36.4460000  -2.9510000 -20.6500000  36.9420000
  -1.4100000 -19.0140000  36.7540000  -0.8630000 -17.7890000  36.1430000
  -1.3460000 -16.9160000  36.5800000  -0.9360000 -17.7610000  35.0600000
   0.5830000 -17.8160000  36.5520000   0.9920000 -16.8090000  36.6380000
   1.1530000 -18.3890000  35.8190000   0.6040000 -18.5310000  37.8620000
   0.3440000 -17.8260000  38.6540000   1.5800000 -18.9750000  38.0610000
  -0.4820000 -19.6040000  37.7260000  -0.0550000 -20.5160000  37.3080000
  -1.1370000 -19.8960000  39.0810000  -0.8150000 -20.9050000  39.7130000
  -2.0560000 -19.0340000  39.5050000  -2.3050000 -18.2370000  38.9340000
  -2.7080000 -19.1830000  40.8030000  -1.9360000 -19.3120000  41.5630000
  -3.5080000 -17.9240000  41.1480000  -4.3060000 -17.7840000  40.4210000
  -3.9580000 -18.0970000  42.1260000  -2.6730000 -16.6540000  41.2120000
  -1.8010000 -16.8360000  41.8420000  -2.3260000 -16.3980000  40.2100000
  -3.4400000 -15.4770000  41.7880000  -4.5360000 -15.6950000  42.3500000
  -2.9430000 -14.3340000  41.6870000  -3.6260000 -20.4020000  40.8600000
  -3.7950000 -21.0060000  41.9180000  -4.2150000 -20.7610000  39.7240000
  -4.0320000 -20.2440000  38.8760000  -5.1990000 -21.8380000  39.6870000
  -5.2800000 -22.3090000  40.6660000  -6.6010000 -21.2990000  39.3250000
  -7.3300000 -22.1020000  39.4360000  -6.9860000 -20.1450000  40.2440000
  -8.0090000 -19.8380000  40.0230000  -6.9390000 -20.4740000  41.2830000
  -6.3300000 -19.2870000  40.1120000  -6.6110000 -20.8490000  37.9630000
  -6.1500000 -20.0050000  37.9320000  -4.8330000 -22.9470000  38.7010000
  -5.4510000 -24.0130000  38.7030000  -3.8360000 -22.6950000  37.8560000
  -3.2550000 -21.8960000  38.0350000  -3.4040000 -23.6740000  36.8730000
  -2.4930000 -23.3060000  36.4010000  -3.1820000 -24.6150000  37.3760000
  -4.4400000 -23.9210000  35.7920000  -4.3650000 -24.9060000  35.0540000
  -5.4100000 -23.0180000  35.6960000  -5.4310000 -22.2300000  36.3300000
  -6.5170000 -23.1770000  34.7600000  -6.5270000 -24.2100000  34.4230000
  -7.8530000 -22.9570000  35.4750000  -7.8480000 -21.9370000  35.8420000
  -8.6700000 -23.0770000  34.7620000  -8.0900000 -23.8690000  36.6660000
  -8.2230000 -24.8930000  36.3140000  -7.2410000 -23.8370000  37.3170000
  -9.2970000 -23.4490000  37.4780000 -10.0320000 -22.5500000  37.0200000
  -9.5040000 -24.0060000  38.5770000  -6.4060000 -22.2200000  33.5780000
  -6.0020000 -21.0670000  33.7420000  -6.7690000 -22.7020000  32.3790000
  -7.1300000 -24.1030000  32.0950000  -7.9940000 -24.4240000  32.6780000
  -6.2700000 -24.7500000  32.2740000  -7.4640000 -24.0870000  30.6170000
  -8.5420000 -23.9670000  30.4950000  -7.1410000 -25.0060000  30.1280000
  -6.7690000 -22.8950000  30.0470000  -7.2480000 -22.5480000  29.1310000
  -5.7270000 -23.1440000  29.8460000  -6.8420000 -21.8720000  31.1760000
  -6.0080000 -21.1780000  31.1160000  -8.1550000 -21.1060000  31.1390000
  -8.9950000 -21.3020000  32.0150000  -8.3400000 -20.2510000  30.1420000
  -7.6390000 -20.1280000  29.4260000  -9.5750000 -19.4880000  30.0550000
  -9.8560000 -19.1750000  31.0570000  -9.3940000 -18.2550000  29.1640000
  -8.8260000 -18.5340000  28.2750000 -10.3880000 -17.9450000  28.8350000
  -8.7470000 -17.0280000  29.8140000  -7.6940000 -17.2470000  29.9560000
  -8.8330000 -15.8070000  28.9050000  -8.3220000 -14.9610000  29.3650000
  -8.3570000 -16.0280000  27.9490000  -9.8780000 -15.5480000  28.7320000
  -9.3810000 -16.7360000  31.1660000  -9.0690000 -15.7580000  31.5210000
 -10.4680000 -16.7640000  31.0980000  -9.0410000 -17.4580000  31.9070000
 -10.7330000 -20.3410000  29.5440000 -10.5960000 -21.1040000  28.5840000
 -11.8640000 -20.2090000  30.2320000 -11.8790000 -19.5740000  31.0150000
 -13.1500000 -20.7660000  29.8240000 -13.1130000 -21.8480000  29.9540000
 -14.2360000 -20.1990000  30.7500000 -13.9830000 -20.4480000  31.7820000
 -14.2540000 -19.1160000  30.6610000 -15.6170000 -20.7370000  30.4570000
 -15.7430000 -21.7220000  29.6980000 -16.5860000 -20.1630000  31.0040000
 -13.4420000 -20.4530000  28.3480000 -13.0880000 -19.3810000  27.8590000
 -14.0630000 -21.3900000  27.6350000 -14.3790000 -22.2390000  28.0830000
 -14.4250000 -21.1590000  26.2330000 -13.5140000 -20.9150000  25.6930000
 -15.1180000 -22.3850000  25.6380000 -15.5680000 -22.9860000  26.4300000
 -15.9210000 -22.0630000  24.9730000 -14.1830000 -23.2380000  24.8150000
 -13.0630000 -22.7720000  24.5210000 -14.5730000 -24.3690000  24.4540000
 -15.3330000 -19.9460000  26.0740000 -15.1590000 -19.1430000  25.1590000
 -16.3100000 -19.8300000  26.9680000 -16.3980000 -20.5220000  27.7020000
 -17.2410000 -18.7070000  26.9660000 -17.7310000 -18.6630000  25.9930000
 -18.3190000 -18.9120000  28.0410000 -18.7880000 -19.8840000  27.8810000
 -17.8300000 -18.9220000  29.0150000 -19.4130000 -17.8480000  28.0650000
 -18.9540000 -16.8680000  28.1590000 -19.9670000 -17.8820000  27.1250000
 -20.3830000 -18.0160000  29.2290000 -20.3100000 -19.0500000  29.9300000
 -21.2110000 -17.1020000  29.4490000 -16.4980000 -17.3890000  27.1920000
 -16.9140000 -16.3330000  26.7100000 -15.3820000 -17.4650000  27.9120000
 -15.0680000 -18.3630000  28.2540000 -14.6420000 -16.2750000  28.3120000
 -15.3560000 -15.4620000  28.4530000 -13.9650000 -16.5190000  29.6630000
 -14.7110000 -16.8990000  30.3620000 -13.1800000 -17.2670000  29.5530000
 -13.3680000 -15.2580000  30.2550000 -12.1560000 -15.0520000  30.2030000
 -14.2160000 -14.4060000  30.8230000 -15.2060000 -14.6160000  30.8600000
 -13.8780000 -13.5550000  31.2450000 -13.6060000 -15.8120000  27.2780000
 -13.3830000 -14.6120000  27.1330000 -12.9810000 -16.7460000  26.5600000
 -13.1800000 -17.7260000  26.7150000 -12.0290000 -16.3670000  25.5160000
 -11.2420000 -15.7680000  25.9760000 -11.3520000 -17.5990000  24.8170000
 -10.6170000 -17.2130000  24.1080000 -10.6110000 -18.4730000  25.8220000
 -10.2770000 -19.4180000  25.3970000  -9.7160000 -17.9350000  26.1380000
 -11.2050000 -18.6680000  26.7020000 -12.3650000 -18.4290000  24.0220000
 -12.9960000 -18.8920000  24.7500000 -12.9360000 -17.8230000  23.3240000
 -11.7480000 -19.5630000  23.2150000 -12.5010000 -19.9580000  22.5320000
 -10.9070000 -19.1920000  22.6300000 -11.4250000 -20.3800000  23.8600000
 -12.7340000 -15.5060000  24.4650000 -12.1320000 -14.6020000  23.8870000
 -14.0180000 -15.7710000  24.2410000 -14.4720000 -16.5210000  24.7470000
 -14.7850000 -15.0310000  23.2490000 -14.1950000 -14.9460000  22.3350000
 -16.0860000 -15.7640000  22.9120000 -16.6920000 -15.8600000  23.8150000
 -16.6280000 -15.1260000  22.2140000 -15.8840000 -17.1460000  22.3070000
 -15.1660000 -17.0790000  21.4880000 -15.4880000 -17.8250000  23.0570000
 -17.1930000 -17.7050000  21.7700000 -17.0270000 -18.7090000  21.3780000
 -17.8990000 -17.7900000  22.5970000 -17.7740000 -16.8330000  20.7520000
 -18.4190000 -16.1200000  21.0610000 -17.5250000 -16.9310000  19.4480000
 -16.7080000 -17.8730000  18.9900000 -16.6070000 -17.9830000  17.9890000
 -16.2930000 -18.5350000  19.6250000 -18.0980000 -16.0900000  18.5990000
 -17.9790000 -16.2320000  17.6030000 -18.7360000 -15.3860000  18.9370000
 -15.0860000 -13.6260000  23.7450000 -15.0760000 -12.6690000  22.9720000
 -15.3490000 -13.5100000  25.0430000 -15.3650000 -14.3340000  25.6280000
 -15.6270000 -12.2190000  25.6590000 -16.3650000 -11.7000000  25.0550000
 -16.1410000 -12.4050000  27.0900000 -15.5300000 -13.1570000  27.5890000
 -15.9910000 -11.4890000  27.6490000 -17.5980000 -12.8140000  27.1830000
 -18.5500000 -12.2720000  26.3280000 -18.2880000 -11.5150000  25.6080000
 -19.8830000 -12.6440000  26.4110000 -20.6130000 -12.2040000  25.7470000
 -20.2770000 -13.5700000  27.3590000 -21.6010000 -13.9460000  27.4490000
 -21.7430000 -14.6210000  28.1190000 -19.3490000 -14.1210000  28.2200000
 -19.6580000 -14.8340000  28.9710000 -18.0200000 -13.7440000  28.1280000
 -17.3030000 -14.1790000  28.8080000 -14.3870000 -11.3310000  25.6560000
 -14.4940000 -10.1100000  25.5460000 -13.2120000 -11.9470000  25.7690000
 -13.1780000 -12.9520000  25.8820000 -11.9580000 -11.1970000  25.7910000
 -12.0960000 -10.3250000  26.4240000 -10.8170000 -12.0490000  26.3580000
 -10.6470000 -12.8950000  25.6900000  -9.9060000 -11.4510000  26.3790000
 -11.0570000 -12.5970000  27.7630000 -11.9820000 -13.1090000  27.8350000
 -10.2520000 -13.2860000  28.0170000 -11.1430000 -11.5220000  28.8350000
 -11.0350000 -10.3310000  28.5550000 -11.3290000 -11.9470000  30.0770000
 -11.4340000 -12.9370000  30.2610000 -11.3860000 -11.2830000  30.8330000
 -11.5890000 -10.6920000  24.4020000 -11.0530000  -9.5960000  24.2590000
 -11.8800000 -11.4890000  23.3780000 -12.2930000 -12.3980000  23.5390000
 -11.6470000 -11.0530000  22.0060000 -10.5980000 -10.7710000  21.9050000
 -11.9510000 -12.1580000  20.9840000 -12.9980000 -12.4490000  21.0870000
 -11.7180000 -11.6430000  19.5760000 -11.7490000 -10.5630000  19.4800000
 -10.7430000 -11.9580000  19.2000000 -12.4700000 -12.0590000  18.9090000
 -11.0690000 -13.3800000  21.2420000 -10.0450000 -13.1090000  21.0020000
 -11.0050000 -13.6470000  22.2710000 -11.3960000 -14.5670000  20.3660000
 -10.7060000 -15.3810000  20.5930000 -12.4110000 -14.9020000  20.5760000
 -11.2980000 -14.3170000  19.3090000 -12.5070000  -9.8320000  21.7030000
 -11.9980000  -8.8090000  21.2440000 -13.8050000  -9.9380000  21.9680000
 -14.1800000 -10.8030000  22.3330000 -14.6980000  -8.7950000  21.8230000
 -14.7450000  -8.5260000  20.7670000 -16.1210000  -9.1130000  22.3140000
 -16.0720000  -9.4480000  23.3510000 -16.9940000  -7.8680000  22.2540000
 -17.9940000  -8.0840000  22.6210000 -16.6090000  -7.0810000  22.9010000
 -17.0570000  -7.4950000  21.2310000 -16.7420000 -10.2250000  21.4730000
 -16.7980000  -9.8990000  20.4330000 -16.1190000 -11.1100000  21.4950000
 -18.1360000 -10.6070000  21.9250000 -18.4240000 -11.5370000  21.4330000
 -18.1540000 -10.7650000  23.0040000 -18.8620000  -9.8430000  21.6460000
 -14.1600000  -7.5960000  22.5980000 -14.0680000  -6.4930000  22.0580000
 -13.7880000  -7.8290000  23.8550000 -13.8840000  -8.7570000  24.2410000
 -13.2620000  -6.7770000  24.7190000 -14.0560000  -6.0500000  24.8960000
 -12.7960000  -7.3340000  26.0860000 -12.0870000  -8.1450000  25.9460000
 -12.1290000  -6.2500000  26.9060000 -11.9800000  -6.6140000  27.9230000
 -11.1520000  -5.9960000  26.4940000 -12.7610000  -5.3620000  26.9270000
 -13.9240000  -7.8240000  26.8170000 -14.2590000  -8.6150000  26.3710000
 -12.0940000  -6.0540000  24.0610000 -12.1270000  -4.8400000  23.8840000
 -11.0760000  -6.8120000  23.6720000 -11.1080000  -7.8110000  23.8050000
  -9.8630000  -6.2230000  23.1250000  -9.5520000  -5.4090000  23.7820000
  -8.7480000  -7.2670000  23.1160000  -9.1500000  -8.2160000  22.7640000
  -7.9720000  -6.9570000  22.4140000  -8.1040000  -7.4530000  24.4580000
  -8.4600000  -8.5070000  25.2800000  -9.0360000  -9.3110000  24.9210000
  -7.8760000  -8.6610000  26.5150000  -8.1610000  -9.4950000  27.1350000
  -6.9320000  -7.7520000  26.9500000  -6.4400000  -7.8710000  27.9050000
  -6.5780000  -6.6950000  26.1460000  -5.8570000  -5.9710000  26.4940000
  -7.1670000  -6.5510000  24.9120000  -6.8880000  -5.7130000  24.2890000
 -10.0420000  -5.6160000  21.7280000  -9.3490000  -4.6610000  21.3780000
 -10.9690000  -6.1490000  20.9380000 -11.5200000  -6.9350000  21.2530000
 -11.2510000  -5.5650000  19.6310000 -10.3120000  -5.4100000  19.1030000
 -12.1630000  -6.4770000  18.8060000 -12.9870000  -6.8170000  19.4360000
 -12.6000000  -5.8730000  18.0080000 -11.5030000  -7.6900000  18.1440000
 -11.0980000  -8.3370000  18.9180000 -12.5210000  -8.4920000  17.3490000
 -12.0530000  -9.3880000  16.9520000 -13.3440000  -8.7900000  18.0000000
 -12.9140000  -7.8900000  16.5290000 -10.3380000  -7.2640000  17.2590000
  -9.9820000  -8.1160000  16.6790000 -10.6500000  -6.4720000  16.5770000
  -9.5040000  -6.9130000  17.8640000 -11.8860000  -4.1860000  19.7890000
 -11.5800000  -3.2620000  19.0410000 -12.7700000  -4.0550000  20.7730000
 -12.9910000  -4.8500000  21.3590000 -13.4360000  -2.7870000  21.0450000
 -13.6630000  -2.2920000  20.0990000 -14.7720000  -2.9980000  21.8000000
 -14.5760000  -3.5680000  22.7100000 -15.3890000  -1.6690000  22.2070000
 -16.2820000  -1.8210000  22.8100000 -14.7160000  -1.0840000  22.8310000
 -15.6450000  -1.0840000  21.3240000 -15.7540000  -3.8030000  20.9470000
 -15.8920000  -3.3400000  19.9810000 -15.3340000  -4.7860000  20.7510000
 -17.1050000  -4.0130000  21.6110000 -17.6810000  -4.7300000  21.0260000
 -16.9700000  -4.4120000  22.6170000 -17.6700000  -3.0830000  21.6560000
 -12.5350000  -1.8650000  21.8580000 -12.1410000  -0.7960000  21.3850000
 -12.2080000  -2.2900000  23.0780000 -12.5740000  -3.1700000  23.4050000
 -11.4270000  -1.4800000  24.0160000 -11.9950000  -0.5750000  24.2330000
 -11.2170000  -2.2360000  25.3220000 -10.7270000  -1.5860000  26.0470000
 -12.1790000  -2.5530000  25.7250000 -10.5880000  -3.1100000  25.1530000
 -10.0830000  -1.0680000  23.4390000  -9.5500000  -0.0100000  23.7770000
  -9.5460000  -1.9070000  22.5600000 -10.0290000  -2.7590000  22.3090000
  -8.2460000  -1.6630000  21.9720000  -7.5770000  -1.2920000  22.7490000
  -7.8450000  -2.6180000  21.6370000  -8.1770000  -0.7000000  20.7980000
  -7.1150000  -0.5830000  20.1910000  -9.2700000  -0.0090000  20.4660000
 -10.1390000  -0.1440000  20.9650000  -9.2200000   0.9140000  19.3300000
  -8.2050000   1.3050000  19.2570000  -9.5060000   0.1460000  18.0250000
  -8.9070000   0.5860000  17.2450000  -9.1950000  -0.8960000  18.1140000
 -10.9320000   0.2110000  17.5630000 -11.8540000  -0.7690000  17.8590000
 -11.6660000  -1.5960000  18.4040000 -13.0170000  -0.4570000  17.3130000
 -13.9100000  -1.0600000  17.3500000 -12.8790000   0.6830000  16.6630000
 -11.5810000   1.1190000  16.7950000 -11.1600000   2.0180000  16.3700000
 -10.1290000   2.1500000  19.3940000  -9.8000000   3.1680000  18.7850000
 -11.2530000   2.0920000  20.1060000 -11.5250000   1.2390000  20.5750000
 -12.1980000   3.2130000  20.0410000 -12.3640000   3.4600000  18.9910000
 -13.5740000   2.8660000  20.6640000 -14.1890000   3.7670000  20.6720000
 -14.2930000   1.8300000  19.8160000 -15.2890000   1.6490000  20.2210000
 -14.3920000   2.1930000  18.7930000 -13.7400000   0.8900000  19.8110000
 -13.4180000   2.3830000  22.0970000 -13.0070000   3.1670000  22.7240000
 -14.3960000   2.1150000  22.4980000 -12.7740000   1.5100000  22.1570000
 -11.6530000   4.4630000  20.7210000 -11.9170000   5.5860000  20.2820000
 -10.8810000   4.2570000  21.7810000 -10.7100000   3.3140000  22.1010000
 -10.3490000   5.3550000  22.5780000 -11.0650000   6.1780000  22.5790000
 -10.1110000   4.9130000  24.0390000  -9.3750000   5.5690000  24.5040000
 -11.4030000   4.9880000  24.8440000 -12.0330000   4.1220000  24.6390000
 -11.1380000   4.9910000  25.8960000 -11.9490000   5.9030000  24.6130000
  -9.6310000   3.5610000  24.0530000  -8.7240000   3.5550000  23.7470000
  -9.0500000   5.8940000  21.9890000  -8.6940000   7.0510000  22.2120000
  -8.3500000   5.0460000  21.2380000  -8.7000000   4.1120000  21.0840000
  -7.1010000   5.4260000  20.5880000  -6.5050000   6.0050000  21.2960000
  -6.2830000   4.1910000  20.1810000  -6.8360000   3.6070000  19.4440000
  -4.9490000   4.6030000  19.6040000  -4.3470000   3.7140000  19.4150000
  -5.0760000   5.1330000  18.6610000  -4.4150000   5.2440000  20.3070000
  -6.0500000   3.3780000  21.3350000  -5.6570000   2.5500000  21.0450000
  -7.3590000   6.2940000  19.3530000  -6.6910000   7.3120000  19.1560000
  -8.3280000   5.8960000  18.5280000  -8.8520000   5.0520000  18.7200000
  -8.7160000   6.7080000  17.3810000  -7.8250000   6.9260000  16.7920000
  -9.7140000   5.9750000  16.4830000  -9.7910000   6.5020000  15.5340000
  -9.3720000   4.9670000  16.2980000 -10.9980000   5.9460000  17.0740000
 -11.5690000   5.4000000  16.5310000  -9.3170000   8.0120000  17.8640000
  -9.1650000   9.0520000  17.2240000 -10.0090000   7.9500000  18.9950000
 -10.1550000   7.0600000  19.4510000 -10.5650000   9.1430000  19.6040000
 -11.2460000   9.6320000  18.9060000 -11.1190000   8.8570000  20.4960000
  -9.4410000  10.0880000  19.9700000  -9.5050000  11.2820000  19.6780000
  -8.4030000   9.5360000  20.5960000  -8.4280000   8.5500000  20.8160000
  -7.2280000  10.2940000  21.0110000  -7.5520000  11.0890000  21.6850000
  -6.2620000   9.3860000  21.7740000  -6.7140000   9.1660000  22.7420000
  -6.1800000   8.4390000  21.2500000  -4.8360000   9.8900000  22.0020000
  -4.3460000  10.0240000  21.0370000  -4.8330000  11.2260000  22.7320000
  -3.8590000  11.4000000  23.1870000  -5.0170000  12.0400000  22.0380000
  -5.6170000  11.2440000  23.4850000  -4.0180000   8.8520000  22.7670000
  -2.9940000   9.2030000  22.8990000  -4.4650000   8.6740000  23.7440000
  -3.9950000   7.9160000  22.2080000  -6.5100000  10.9450000  19.8290000
  -6.1710000  12.1280000  19.8780000  -6.2790000  10.1680000  18.7740000
  -6.5630000   9.1990000  18.7980000  -5.6140000  10.6680000  17.5730000
  -4.6780000  11.1380000  17.8720000  -5.3160000   9.5110000  16.6170000
  -6.1870000   8.8540000  16.5860000  -5.1870000   9.9170000  15.6140000
  -4.0670000   8.6930000  16.9580000  -4.0850000   8.4450000  18.0210000
  -4.0450000   7.3880000  16.1860000  -4.0070000   7.5880000  15.1140000
  -3.1730000   6.7980000  16.4700000  -4.9430000   6.8100000  16.4110000
  -2.8170000   9.5090000  16.6730000  -1.9340000   8.8870000  16.8040000
  -2.8290000   9.8780000  15.6460000  -2.7400000  10.3520000  17.3590000
  -6.4400000  11.7390000  16.8610000  -5.8900000  12.7050000  16.3300000
  -7.7590000  11.5730000  16.8560000  -8.1730000  10.7680000  17.3040000
  -8.6390000  12.5600000  16.2360000  -8.2570000  12.7960000  15.2420000
 -10.0500000  11.9980000  16.0750000 -10.4570000  11.7300000  17.0500000
 -10.6840000  12.7590000  15.6200000 -10.0450000  10.8560000  15.2380000
  -9.6500000  10.1260000  15.7290000  -8.6740000  13.8520000  17.0490000
  -8.7220000  14.9440000  16.4850000  -8.6460000  13.7280000  18.3720000
  -8.6190000  12.8120000  18.8000000  -8.5830000  14.9030000  19.2360000
  -9.3230000  15.6280000  18.8950000  -8.8990000  14.5330000  20.6890000
  -8.4770000  13.5550000  20.9240000  -8.4090000  15.2540000  21.3460000
 -10.3650000  14.5740000  21.0250000 -11.0780000  15.7570000  20.9370000
 -10.5800000  16.6640000  20.6250000 -12.4240000  15.7980000  21.2490000
 -12.9630000  16.7300000  21.1900000 -13.0670000  14.6550000  21.6610000
 -14.1120000  14.6830000  21.9240000 -12.3660000  13.4710000  21.7600000
 -12.8590000  12.5750000  22.1020000 -11.0230000  13.4330000  21.4440000
 -10.4860000  12.5060000  21.5560000  -7.2130000  15.5800000  19.1530000
  -7.1140000  16.8080000  19.2230000  -6.1600000  14.7810000  19.0030000
  -6.2870000  13.7800000  18.9600000  -4.8030000  15.3190000  18.9170000
  -4.6390000  15.9890000  19.7620000  -3.7770000  14.2020000  19.0000000
  -2.7720000  14.6210000  18.9390000  -3.8840000  13.6830000  19.9530000
  -3.9190000  13.4900000  18.1860000  -4.6160000  16.1170000  17.6310000
  -4.1270000  17.2490000  17.6540000  -5.0150000  15.5250000  16.5110000
  -5.4050000  14.5930000  16.5420000  -4.9030000  16.1960000  15.2260000
  -3.8620000  16.4970000  15.1060000  -5.2830000  15.2490000  14.0900000
  -4.6820000  14.3450000  14.1940000  -6.3280000  14.9580000  14.2170000
  -5.0970000  15.7870000  12.6710000  -5.7490000  16.6490000  12.5230000
  -3.6610000  16.2340000  12.4540000  -3.4940000  16.4650000  11.4010000
  -3.4610000  17.1420000  13.0220000  -2.9640000  15.4580000  12.7640000
  -5.4940000  14.7330000  11.6470000  -4.9530000  13.8040000  11.8120000
  -6.5590000  14.5420000  11.7280000  -5.2910000  15.0960000  10.6390000
  -5.7770000  17.4480000  15.1960000  -5.4020000  18.4530000  14.5980000
  -6.9350000  17.3890000  15.8490000  -7.2150000  16.5350000  16.3110000
  -7.8090000  18.5550000  15.9480000  -8.0860000  18.8870000  14.9530000
  -9.0910000  18.2190000  16.7180000  -9.7530000  17.6400000  16.0740000
  -8.8480000  17.5910000  17.5720000  -9.8380000  19.4420000  17.2290000
 -10.6970000  20.1550000  16.4010000 -10.8120000  19.8400000  15.3750000
 -11.3780000  21.2710000  16.8620000 -12.0440000  21.8240000  16.2160000
 -11.2020000  21.6880000  18.1680000 -11.8770000  22.7970000  18.6320000
 -11.6710000  23.0050000  19.5480000 -10.3550000  20.9990000  19.0100000
 -10.2280000  21.3260000  20.0280000  -9.6810000  19.8830000  18.5400000
  -9.0360000  19.3390000  19.2150000  -7.1030000  19.7250000  16.6200000
  -7.0970000  20.8370000  16.0950000  -6.5140000  19.4740000  17.7840000
  -6.5450000  18.5440000  18.1800000  -5.8870000  20.5450000  18.5500000
  -6.6050000  21.3580000  18.6370000  -5.4950000  20.0460000  19.9430000
  -5.0540000  19.0500000  19.8670000  -4.7300000  20.7130000  20.3420000
  -6.6330000  20.0490000  20.9280000  -7.4440000  21.1640000  21.0680000
  -7.2420000  22.0650000  20.5090000  -8.4940000  21.1700000  21.9720000
  -9.1050000  22.0530000  22.0860000  -8.7500000  20.0510000  22.7370000
  -9.5580000  20.0640000  23.4530000  -7.9530000  18.9310000  22.6040000
  -8.1430000  18.0570000  23.2110000  -6.9030000  18.9310000  21.7010000
  -6.2890000  18.0470000  21.6050000  -4.6740000  21.1210000  17.8300000
  -4.3700000  22.3030000  17.9740000  -3.9950000  20.2890000  17.0450000
  -4.2810000  19.3220000  16.9670000  -2.8000000  20.7240000  16.3290000
  -2.1400000  21.2330000  17.0310000  -2.0620000  19.5260000  15.7230000
  -2.7750000  18.9210000  15.1620000  -1.3460000  19.9110000  15.0010000
  -1.2910000  18.6090000  16.6800000  -1.9780000  18.0760000  17.3190000
  -0.4880000  17.5760000  15.9080000  -0.0030000  16.8880000  16.6000000
  -1.1510000  17.0090000  15.2540000   0.2760000  18.0710000  15.3090000
  -0.3810000  19.4090000  17.5950000   0.3460000  18.7590000  18.0800000
   0.1530000  20.1670000  17.0290000  -0.9750000  19.8910000  18.3720000
  -3.1330000  21.7350000  15.2390000  -2.3910000  22.6920000  15.0340000
  -4.2460000  21.5370000  14.5390000  -4.8320000  20.7320000  14.7190000
  -4.6040000  22.4510000  13.4560000  -3.6950000  22.7440000  12.9280000
  -5.5430000  21.7890000  12.4190000  -5.6020000  22.4510000  11.5540000
  -4.9750000  20.4560000  11.9530000  -3.9080000  20.5530000  11.7460000
  -5.1270000  19.6770000  12.6780000  -5.4750000  20.1610000  11.0300000
  -6.9450000  21.6220000  12.9830000  -6.9460000  20.8560000  13.7510000
  -7.3780000  22.5530000  13.3470000  -7.5920000  21.2640000  12.1810000
  -5.2670000  23.7210000  13.9890000  -5.4510000  24.6860000  13.2490000
  -5.6180000  23.7130000  15.2730000  -5.4740000  22.8790000  15.8250000
  -6.1960000  24.8840000  15.9290000  -6.6040000  25.5650000  15.1840000
  -7.3110000  24.4740000  16.8970000  -6.9150000  23.7310000  17.5910000
  -7.6120000  25.3420000  17.4850000  -8.5520000  23.8980000  16.2350000
  -8.2850000  23.0420000  15.6180000  -9.2340000  23.5600000  17.0160000
  -9.2610000  24.9300000  15.3740000  -9.5150000  25.8030000  15.9760000
  -8.6110000  25.2350000  14.5550000 -10.5320000  24.3560000  14.7630000
 -10.2790000  23.4240000  14.2550000 -11.2540000  24.1370000  15.5520000
 -11.1430000  25.2830000  13.7630000 -10.4430000  25.5940000  13.1060000
 -11.8750000  24.8050000  13.2560000 -11.5340000  26.0900000  14.2250000
  -5.1220000  25.6670000  16.6760000  -5.3540000  26.7910000  17.1250000
  -3.9520000  25.0510000  16.8160000  -3.8370000  24.1180000  16.4470000
  -2.7980000  25.6800000  17.4490000  -2.9470000  26.7590000  17.5120000
  -2.6070000  25.1700000  18.8850000  -2.3460000  24.1110000  18.8700000
  -1.7890000  25.7190000  19.3520000  -3.8560000  25.3350000  19.7490000
  -4.0290000  26.3530000  20.4210000  -4.7140000  24.3190000  19.7560000
  -4.5100000  23.4870000  19.2320000  -5.5390000  24.3790000  20.3310000
  -1.5450000  25.4050000  16.6210000  -0.7170000  24.5810000  17.0050000
  -1.4060000  26.0920000  15.4750000  -2.2940000  27.1800000  15.0340000
  -1.9760000  28.1210000  15.4850000  -3.3460000  26.9930000  15.2300000
  -2.0700000  27.2110000  13.5550000  -2.2800000  28.1970000  13.1400000
  -2.7060000  26.4620000  13.0790000  -0.6400000  26.8320000  13.3760000
  -0.0180000  27.7160000  13.5300000  -0.4580000  26.4170000  12.3840000
  -0.3710000  25.7940000  14.4730000  -0.5680000  24.8060000  14.0680000
   1.0660000  25.9190000  14.9840000   1.9520000  25.2300000  14.4800000
   1.2980000  26.7840000  15.9630000   0.5450000  27.3370000  16.3440000
   2.6380000  26.9290000  16.5150000   3.3600000  26.9880000  15.6980000
   2.7430000  28.2130000  17.3450000   1.8600000  28.3190000  17.9780000
   3.6100000  28.1290000  18.0030000   2.9410000  29.4490000  16.5170000
   2.1310000  30.5590000  16.6270000   1.3540000  30.6550000  17.2670000
   2.5410000  31.4870000  15.7800000   2.1000000  32.4680000  15.6540000
   3.5920000  31.0230000  15.1280000   4.1190000  31.5210000  14.4220000
   3.8620000  29.7490000  15.5700000   4.6640000  29.1070000  15.2330000
   2.9920000  25.6940000  17.3410000   4.1630000  25.3370000  17.4760000
   1.9690000  25.0360000  17.8780000   1.0270000  25.3710000  17.7410000
   2.1430000  23.7560000  18.5600000   3.0180000  23.8090000  19.2110000
   0.9120000  23.4060000  19.4240000   0.0160000  23.3570000  18.8220000
   1.0530000  22.0170000  20.0380000   0.3890000  21.9470000  20.8900000
   0.7930000  21.2510000  19.3110000   2.0690000  21.8520000  20.3710000
   0.6960000  24.4650000  20.4970000  -0.1820000  24.2150000  21.0930000
   1.5640000  24.5100000  21.1550000   0.5370000  25.4440000  20.0480000
   2.3780000  22.6580000  17.5260000   3.1860000  21.7460000  17.7230000
   1.6590000  22.7680000  16.4150000   0.9900000  23.5200000  16.3310000
   1.7900000  21.8470000  15.3000000   1.6550000  20.8270000  15.6580000
   0.7050000  22.1470000  14.2580000  -0.2150000  21.8240000  14.7250000
   0.6510000  23.2140000  14.1290000   0.7390000  21.5570000  12.8460000
   1.5320000  22.0510000  12.2830000   1.0210000  20.0750000  12.8630000
   0.1710000  19.5380000  13.2820000   1.1710000  19.7320000  11.8390000
   1.9000000  19.8120000  13.4350000  -0.5940000  21.8230000  12.1600000
  -0.5610000  21.4510000  11.1350000  -1.4030000  21.3200000  12.6900000
  -0.7960000  22.8950000  12.1370000   3.1850000  21.9320000  14.6880000
   3.7760000  20.9150000  14.3240000   3.7100000  23.1500000  14.5950000
   3.1810000  23.9430000  14.9210000   5.0390000  23.3940000  14.0340000
   5.0690000  22.9730000  13.0280000   5.2940000  24.9040000  13.9360000
   4.4370000  25.3530000  13.4320000   5.3440000  25.3270000  14.9400000
   6.5380000  25.3150000  13.1560000   7.4170000  24.9390000  13.6740000
   6.5010000  24.8610000  12.1650000   6.6630000  26.8280000  13.0140000
   6.1090000  27.5870000  13.8100000   7.3830000  27.2690000  11.9890000
   7.8500000  26.6070000  11.3870000   7.5270000  28.2590000  11.8720000
   6.1180000  22.7220000  14.8770000   6.9450000  21.9620000  14.3650000
   6.0900000  23.0090000  16.1750000   5.3860000  23.6450000  16.5240000
   7.0550000  22.4720000  17.1290000   8.0500000  22.8150000  16.8380000
   6.7440000  23.0030000  18.5290000   6.6790000  24.0910000  18.4610000
   5.7640000  22.6340000  18.8380000   7.7580000  22.6610000  19.6000000
   7.7940000  21.5810000  19.7460000   8.7440000  23.0130000  19.2920000
   7.3650000  23.3320000  20.9080000   7.3200000  24.4110000  20.7480000
   6.3830000  23.0030000  21.2190000   8.3670000  23.0590000  22.0140000
   8.4240000  21.9820000  22.1810000   9.3490000  23.4220000  21.7080000
   7.9570000  23.7320000  23.2780000   8.6180000  23.5240000  24.0130000
   7.9190000  24.7310000  23.1380000   7.0370000  23.4130000  23.5580000
   7.0510000  20.9440000  17.1180000   8.1020000  20.3050000  17.1940000
   5.8570000  20.3710000  17.0080000   5.0280000  20.9480000  16.9650000
   5.6890000  18.9250000  16.9460000   6.2790000  18.4630000  17.7320000
   4.2370000  18.5630000  17.1470000   4.1240000  17.4790000  17.1310000
   3.8880000  18.9280000  18.1100000   3.6240000  19.0030000  16.3600000
   6.1980000  18.3660000  15.6230000   6.8670000  17.3330000  15.5960000
   5.8770000  19.0520000  14.5290000   5.3330000  19.8990000  14.6040000
   6.3220000  18.6310000  13.2030000   6.0610000  17.5890000  13.0700000
   5.6590000  19.4680000  12.1230000   5.9970000  19.1310000  11.1430000
   4.5760000  19.3500000  12.1780000   5.9150000  20.5210000  12.2470000
   7.8360000  18.7230000  13.0930000   8.4750000  17.8770000  12.4630000
   8.4000000  19.7560000  13.7170000   7.8230000  20.4050000  14.2270000
   9.8500000  19.9490000  13.7520000  10.2240000  19.9610000  12.7270000
  10.1940000  21.2870000  14.4130000   9.3790000  21.6060000  15.0610000
  11.0720000  21.1630000  15.0490000  10.5150000  22.3990000  13.4140000
  11.5190000  22.2460000  13.0160000   9.8090000  22.3300000  12.5840000
  10.4110000  23.7970000  14.0100000  10.8430000  23.9910000  15.1660000
   9.8910000  24.7020000  13.3170000  10.5510000  18.7970000  14.4780000
  11.5740000  18.2970000  14.0110000   9.9950000  18.3720000  15.6100000
   9.1540000  18.8120000  15.9600000  10.5270000  17.2110000  16.3130000
  11.5890000  17.3700000  16.4880000   9.8410000  17.0220000  17.6710000
   9.9350000  17.9410000  18.2500000   8.7800000  16.8320000  17.5090000
  10.4300000  15.8720000  18.4910000  10.4030000  14.9510000  17.9100000
  11.4740000  16.0930000  18.7170000   9.6740000  15.5980000  19.7810000
   8.4490000  15.3750000  19.7180000  10.3070000  15.6040000  20.8600000
  10.3690000  15.9500000  15.4650000  11.2480000  15.0830000  15.4550000
   9.2500000  15.8510000  14.7520000   8.5550000  16.5840000  14.7960000
   8.9870000  14.6910000  13.9050000   9.0240000  13.7960000  14.5280000
   7.6010000  14.7830000  13.2880000   7.3830000  13.8620000  12.7470000
   6.8580000  14.9080000  14.0770000   7.5320000  15.6110000  12.5890000
  10.0500000  14.5700000  12.8170000  10.6210000  13.4980000  12.6060000
  10.3120000  15.6860000  12.1440000   9.8090000  16.5310000  12.3760000
  11.3250000  15.7590000  11.1000000  11.0940000  15.0080000  10.3430000
  11.2880000  17.1260000  10.4390000  10.2910000  17.3130000  10.0360000
  11.5320000  17.9050000  11.1640000  12.0100000  17.1580000   9.6220000
  12.7210000  15.4750000  11.6460000  13.5190000  14.7780000  11.0180000
  13.0010000  16.0190000  12.8260000  12.2990000  16.5760000  13.2940000
  14.3120000  15.8990000  13.4530000  15.0690000  16.2260000  12.7390000
  14.3780000  16.8250000  14.6740000  14.4160000  17.8500000  14.3010000
  13.4570000  16.7010000  15.2440000  15.5470000  16.5860000  15.6180000
  15.3460000  15.7040000  16.2290000  16.4620000  16.4240000  15.0460000
  15.7580000  17.7880000  16.5270000  16.4390000  17.5220000  17.3350000
  16.2420000  18.5700000  15.9410000  14.5000000  18.3360000  17.0330000
  13.9890000  18.9590000  16.4240000  13.9790000  18.0510000  18.2250000
  14.6050000  17.2170000  19.0470000  14.1960000  16.9840000  19.9390000
  15.4630000  16.7760000  18.7540000  12.8280000  18.6020000  18.5960000
  12.4230000  18.3660000  19.4890000  12.3380000  19.2240000  17.9700000
  14.6550000  14.4630000  13.8540000  15.8040000  14.0400000  13.7410000
  13.6550000  13.7110000  14.3060000  12.7250000  14.1030000  14.3670000
  13.8910000  12.3770000  14.8550000  14.9130000  12.3220000  15.2320000
  12.9560000  12.1000000  16.0440000  11.9260000  12.2000000  15.7030000
  13.1550000  10.6780000  16.5610000  12.5810000  10.5490000  17.4780000
  12.7900000   9.9410000  15.8460000  14.2090000  10.4950000  16.7750000
  13.1870000  13.1240000  17.1480000  12.4820000  12.9580000  17.9620000
  14.1990000  13.0150000  17.5400000  13.0680000  14.1430000  16.7920000
  13.7180000  11.2490000  13.8370000  14.5590000  10.3540000  13.7430000
  12.6240000  11.2920000  13.0850000  11.9800000  12.0660000  13.1710000
  12.3070000  10.2310000  12.1350000  12.5950000   9.2710000  12.5650000
  10.8020000  10.1980000  11.8690000  10.5160000  11.1540000  11.4320000
  10.5860000   9.4130000  11.1420000   9.9370000   9.9810000  13.1130000
  10.1660000  10.7460000  13.8540000   8.4600000  10.1190000  12.7760000
   7.8600000   9.9860000  13.6760000   8.2600000  11.1120000  12.3720000
   8.1730000   9.3680000  12.0400000  10.2250000   8.6180000  13.7280000
   9.4840000   8.3810000  14.4920000  10.2170000   7.8540000  12.9550000
  11.2050000   8.6390000  14.1980000  13.0800000  10.4000000  10.8290000
  12.5790000  10.9870000   9.8670000  14.3000000   9.8700000  10.8080000
  14.6550000   9.4270000  11.6440000  15.2310000  10.0810000   9.7020000
  14.9220000  10.9570000   9.1300000  16.6570000  10.3550000  10.2280000
  17.3270000  10.4720000   9.3750000  16.6920000  11.6510000  11.0300000
  17.7170000  11.8650000  11.3330000  16.3330000  12.4760000  10.4140000
  16.0740000  11.5800000  11.9240000  17.1490000   9.1860000  11.0690000
  18.1920000   9.3600000  11.3350000  16.5820000   9.1170000  11.9920000
  17.1060000   8.2440000  10.5250000  15.2900000   8.9030000   8.7310000
  15.7340000   9.0550000   7.5940000  14.8510000   7.7330000   9.1840000
  14.4970000   7.6600000  10.1250000  14.8060000   6.5420000   8.3400000
  15.6060000   6.6060000   7.6040000  15.0330000   5.2810000   9.1800000
  14.3520000   5.2950000  10.0330000  14.8070000   4.3900000   8.5960000
  16.4590000   5.1630000   9.6810000  17.3420000   5.8580000   9.1370000
  16.6960000   4.3680000  10.6150000  13.4660000   6.4690000   7.6060000
  12.5030000   7.1150000   8.0210000  13.4070000   5.6980000   6.5020000
  14.5630000   5.0510000   5.8520000  14.9070000   4.2030000   6.4430000
  15.3750000   5.7550000   5.6670000  14.0010000   4.5560000   4.5460000
  14.4790000   3.6260000   4.2350000  14.1490000   5.3220000   3.7820000
  12.5480000   4.3700000   4.7730000  12.3700000   3.3980000   5.2350000
  12.0160000   4.4670000   3.8320000  12.1770000   5.5120000   5.7170000
  11.9790000   6.4180000   5.1420000  10.9500000   5.1430000   6.5560000
   9.8720000   5.6950000   6.3280000  11.1180000   4.2160000   7.4980000
  12.0310000   3.8030000   7.6310000  10.0770000   3.8830000   8.4710000
   9.2740000   4.6000000   8.3520000   9.4840000   2.4740000   8.2320000
   8.8570000   2.2270000   9.0860000   8.6060000   2.4650000   6.9890000
   7.8560000   3.2530000   7.0590000   9.2050000   2.6130000   6.0900000
   8.0830000   1.5120000   6.9240000  10.5880000   1.4350000   8.1250000
  10.1330000   0.4440000   8.0630000  11.1840000   1.5880000   7.2230000
  11.2400000   1.4450000   8.9990000  10.6440000   3.9620000   9.8880000
  11.8120000   3.6430000  10.1080000   9.8190000   4.3890000  10.8560000
   8.4280000   4.8440000  10.7010000   7.7470000   3.9970000  10.7940000
   8.2410000   5.3990000   9.7850000   8.2610000   5.7800000  11.8580000
   7.2200000   5.8780000  12.1460000   8.6590000   6.7580000  11.5860000
   9.0920000   5.1840000  12.9490000   8.5150000   4.3930000  13.4310000
   9.3880000   5.9150000  13.6980000  10.3030000   4.5740000  12.2300000
  11.1220000   5.2940000  12.2230000  10.7330000   3.2760000  12.9140000
  10.1230000   2.2270000  12.7090000  11.7910000   3.3580000  13.7140000
  12.2790000   4.2380000  13.8050000  12.2190000   2.2360000  14.5400000
  11.9070000   1.2960000  14.0840000  13.7420000   2.2000000  14.6710000
  14.0340000   1.3100000  15.2280000  14.1940000   2.1560000  13.6790000
  14.2180000   3.3470000  15.3550000  14.2320000   4.0750000  14.7250000
  11.5640000   2.3590000  15.9090000  11.0150000   3.4110000  16.2440000
  11.6160000   1.2890000  16.6950000  12.0500000   0.4410000  16.3620000
  10.9990000   1.2920000  18.0170000   9.9360000   1.5090000  17.9070000
  11.1390000  -0.0790000  18.6770000  10.6960000  -0.8250000  18.0150000
  12.1980000  -0.3240000  18.7760000  10.4780000  -0.1960000  20.0350000
  11.1850000   0.0700000  21.1990000  12.2200000   0.3740000  21.1400000
  10.5910000  -0.0420000  22.4410000  11.1660000   0.1580000  23.3310000
   9.2740000  -0.4310000  22.5340000   8.6780000  -0.5440000  23.7690000
   7.8120000  -0.9360000  23.7100000   8.5500000  -0.7060000  21.3940000
   7.5150000  -1.0070000  21.4590000   9.1530000  -0.5890000  20.1530000
   8.5740000  -0.7700000  19.2660000  11.6150000   2.3710000  18.8940000
  10.9070000   3.1000000  19.5860000  12.9400000   2.4710000  18.8490000
  13.4660000   1.8590000  18.2420000  13.6660000   3.4590000  19.6360000
  13.4070000   3.3290000  20.6880000  15.1750000   3.2610000  19.4810000
  15.4490000   2.3090000  19.9380000  15.4080000   3.2060000  18.4160000
  16.0040000   4.3760000  20.0940000  15.7030000   5.3210000  19.6530000
  15.8350000   4.4210000  21.1710000  17.4900000   4.2240000  19.8020000
  17.6470000   4.0730000  18.7330000  17.9950000   5.1440000  20.0960000
  18.1040000   3.0760000  20.5850000  17.8630000   3.2060000  21.6410000
  17.6780000   2.1330000  20.2410000  19.5840000   3.0410000  20.4300000
  19.9750000   2.3200000  21.0220000  19.8270000   2.8460000  19.4680000
  19.9750000   3.9360000  20.6930000  13.2750000   4.8770000  19.2340000
  13.0640000   5.7400000  20.0910000  13.1710000   5.1070000  17.9270000
  13.3410000   4.3620000  17.2660000  12.8430000   6.4290000  17.3980000
  13.5950000   7.1380000  17.7460000  12.8720000   6.4110000  15.8690000
  12.4230000   5.4890000  15.5050000  12.2640000   7.2370000  15.5070000
  14.2610000   6.5920000  15.2830000  14.6420000   7.5620000  15.6090000
  14.9380000   5.8320000  15.6700000  14.2690000   6.5380000  13.7690000
  13.5920000   5.7090000  13.1630000  15.0380000   7.4260000  13.1480000
  15.5440000   8.1200000  13.6790000  15.1410000   7.3740000  12.1460000
  11.4880000   6.9380000  17.8870000  11.3270000   8.1300000  18.1580000
  10.5160000   6.0390000  18.0010000  10.6760000   5.0750000  17.7440000
   9.2010000   6.4320000  18.4860000   8.8330000   7.2480000  17.8640000
   8.1850000   5.2690000  18.4130000   8.5330000   4.4480000  19.0390000
   6.8230000   5.7150000  18.9260000   6.1020000   4.9060000  18.8100000
   6.8700000   5.9710000  19.9840000   6.4740000   6.5810000  18.3620000
   8.0650000   4.7620000  16.9880000   7.2060000   4.0960000  16.9290000
   7.9010000   5.5950000  16.3020000   8.9520000   4.2330000  16.7010000
   9.3200000   6.9370000  19.9210000   8.7600000   7.9740000  20.2740000
  10.0840000   6.2190000  20.7380000  10.5460000   5.3880000  20.3950000
  10.2280000   6.5680000  22.1480000   9.2360000   6.7490000  22.5640000
  10.8710000   5.4090000  22.9130000  11.7480000   5.0470000  22.3740000
  11.2080000   5.7910000  23.8780000   9.9150000   4.2510000  23.1790000
   9.0030000   4.6550000  23.6200000   9.6580000   3.7520000  22.2430000
  10.5180000   3.2490000  24.1460000  11.2590000   2.6450000  23.6210000
  11.0130000   3.7810000  24.9600000   9.4500000   2.3530000  24.7570000
   8.7160000   2.9710000  25.2760000   8.9440000   1.8200000  23.9520000
  10.0380000   1.3710000  25.7170000   9.3270000   0.7150000  26.0100000
  10.7860000   0.8610000  25.2700000  10.4030000   1.8530000  26.5270000
  11.0330000   7.8570000  22.3450000  11.0760000   8.4090000  23.4450000
  11.6500000   8.3390000  21.2700000  11.5790000   7.8560000  20.3860000
  12.4120000   9.5830000  21.3080000  12.7940000   9.7480000  22.3160000
  13.6160000   9.4950000  20.3660000  13.2500000   9.2550000  19.3710000
  14.1040000  10.4700000  20.3180000  14.6660000   8.4660000  20.7760000
  15.1300000   8.8190000  21.6980000  14.2230000   7.5110000  21.0110000
  15.7600000   8.2990000  19.7320000  15.6360000   8.7870000  18.6080000
  16.8360000   7.6090000  20.1000000  16.9120000   7.2560000  21.0410000
  17.5940000   7.5120000  19.4420000  11.5440000  10.7930000  20.9430000
  11.9990000  11.9330000  20.9990000  10.2940000  10.5400000  20.5690000
   9.9590000   9.5880000  20.5190000   9.3660000  11.6130000  20.2200000
   9.9140000  12.4370000  19.7620000   8.3220000  11.1100000  19.2160000
   7.7590000  10.2960000  19.6680000   7.6450000  11.9310000  19.0180000
   8.8430000  10.6640000  17.8480000   9.6320000   9.9340000  17.9930000
   7.7460000   9.9950000  17.0340000   8.1340000   9.7060000  16.0590000
   7.4110000   9.0940000  17.5440000   6.9040000  10.6760000  16.9000000
   9.4230000  11.8440000  17.0880000   9.7510000  11.5200000  16.1020000
   8.6720000  12.6260000  16.9700000  10.2810000  12.2500000  17.6190000
   8.6730000  12.1700000  21.4630000   7.4470000  12.1030000  21.5830000
   9.4650000  12.7270000  22.3750000  10.4560000  12.7940000  22.1870000
   8.9710000  13.1820000  23.6740000   8.5850000  12.3150000  24.2090000
  10.1210000  13.7880000  24.4880000  10.4840000  14.6680000  23.9540000
   9.7430000  14.1320000  25.4510000  11.3150000  12.8480000  24.6840000
  11.5890000  12.3640000  23.7480000  12.1740000  13.4410000  25.0000000
  11.0490000  11.7830000  25.7440000  10.1230000  11.2500000  25.5250000
  11.8710000  11.0660000  25.7190000  10.9840000  12.4030000  27.1380000
  11.8890000  12.9930000  27.2930000  10.1260000  13.0750000  27.1930000
  10.8800000  11.3910000  28.2320000   9.9990000  10.9010000  28.1580000
  11.6370000  10.7260000  28.1560000  10.9290000  11.8570000  29.1280000
   7.8270000  14.1950000  23.5670000   6.8170000  14.0770000  24.2660000
   7.9800000  15.1820000  22.6900000   8.8050000  15.2240000  22.1050000
   6.9930000  16.2520000  22.5780000   6.7230000  16.5700000  23.5820000
   7.5930000  17.4600000  21.8570000   8.5010000  17.7580000  22.3830000
   7.8740000  17.2340000  20.8440000   6.6730000  18.6590000  21.7870000
   6.4660000  19.4650000  22.9000000   6.9700000  19.2260000  23.8240000
   5.6270000  20.5640000  22.8440000   5.4830000  21.1750000  23.7210000
   4.9860000  20.8690000  21.6640000   4.1510000  21.9620000  21.6080000
   4.1530000  22.4750000  22.4240000   5.1740000  20.0870000  20.5420000
   4.6660000  20.3370000  19.6250000   6.0160000  18.9900000  20.6080000
   6.1430000  18.3610000  19.7450000   5.7270000  15.7800000  21.8620000
   4.6410000  16.3090000  22.0930000   5.8650000  14.7850000  20.9930000
   6.7840000  14.4190000  20.7770000   4.6970000  14.1980000  20.3490000
   4.0620000  14.9970000  19.9640000   5.0920000  13.2800000  19.1630000
   5.7680000  12.5240000  19.5380000   3.8780000  12.5510000  18.6030000
   4.1760000  11.9260000  17.7600000   3.4140000  11.9100000  19.3500000
   3.1540000  13.2860000  18.2560000   5.7640000  14.0970000  18.0650000
   5.0980000  14.8910000  17.7250000   6.6870000  14.5360000  18.4140000
   6.0010000  13.4500000  17.2200000   3.9090000  13.4300000  21.4110000
   2.6770000  13.3930000  21.3800000   4.6270000  12.8450000  22.3670000
   5.6370000  12.8800000  22.3290000   3.9990000  12.2160000  23.5160000
   3.2840000  11.4650000  23.1790000   4.7730000  11.7290000  24.1090000
   3.2930000  13.2420000  24.3830000   2.2590000  12.9600000  24.9900000
   3.8540000  14.4450000  24.4370000   4.7110000  14.6260000  23.9340000
   3.2700000  15.5270000  25.2230000   2.9950000  15.1440000  26.2070000
   4.2920000  16.6490000  25.4230000   4.7570000  16.9030000  24.4770000
   3.7510000  17.5300000  25.7690000   5.3620000  16.3340000  26.4590000
   4.9250000  16.4010000  27.4530000   5.7180000  15.3150000  26.3130000
   6.7860000  17.4380000  26.3650000   5.9890000  19.0400000  26.3730000
   6.7490000  19.8190000  26.3120000   5.3070000  19.1400000  25.5300000
   5.4450000  19.1520000  27.3090000   2.0040000  16.0750000  24.5720000
   1.0740000  16.4900000  25.2650000   1.9750000  16.0840000  23.2420000
   2.7780000  15.7660000  22.7170000   0.7830000  16.4910000  22.5070000
   0.4970000  17.4940000  22.8270000   1.0200000  16.5100000  20.9760000
   1.3970000  15.5350000  20.6690000  -0.2880000  16.7660000  20.2330000
  -0.0890000  16.7830000  19.1610000  -1.0130000  15.9700000  20.4060000
  -0.7130000  17.7260000  20.5240000   2.0580000  17.5560000  20.6030000
   2.4710000  17.3310000  19.6190000   1.5900000  18.5410000  20.5700000
   2.8600000  17.6190000  21.3250000  -0.3630000  15.5400000  22.8300000
  -1.4980000  15.9640000  23.0520000  -0.0460000  14.2500000  22.8690000
   0.9030000  13.9620000  22.6720000  -1.0350000  13.2170000  23.1500000
  -1.8820000  13.3640000  22.4840000  -0.4220000  11.8380000  22.9250000
   0.5070000  11.7590000  23.4890000  -1.1060000  11.0760000  23.3030000
  -0.1410000  11.5680000  21.4530000   0.4690000  12.3640000  21.0350000
   0.6110000  10.2670000  21.2760000   0.7960000  10.0940000  20.2180000
   1.5630000  10.3490000  21.7960000   0.0410000   9.4400000  21.6980000
  -1.4530000  11.5490000  20.6890000  -1.2860000  11.1640000  19.6820000
  -2.1720000  10.9020000  21.1880000  -1.8590000  12.5520000  20.5830000
  -1.6010000  13.3150000  24.5650000  -2.8200000  13.2970000  24.7510000
  -0.7120000  13.4170000  25.5510000   0.2740000  13.4180000  25.3310000
  -1.1150000  13.5230000  26.9500000  -1.7160000  12.6490000  27.2020000
   0.1180000  13.5480000  27.8580000   0.8840000  14.1950000  27.4260000
  -0.1620000  13.9740000  28.8220000   0.6720000  12.1570000  28.1320000
  -0.0530000  11.2650000  28.5690000   1.9600000  11.9650000  27.8630000
   2.3640000  11.0560000  28.0210000   2.5070000  12.7120000  27.4630000
  -1.9840000  14.7520000  27.1990000  -2.9400000  14.7000000  27.9720000
  -1.6560000  15.8520000  26.5300000  -0.8480000  15.8550000  25.9220000
  -2.4280000  17.0820000  26.6540000  -2.5820000  17.2880000  27.7120000
  -1.6590000  18.2550000  26.0390000  -0.7040000  18.3530000  26.5530000
  -1.4480000  18.0190000  24.9950000  -2.3920000  19.5910000  26.0700000
  -1.8180000  20.3090000  25.4830000  -3.3720000  19.4980000  25.6110000
  -2.5580000  20.1510000  27.4690000  -3.3280000  21.1230000  27.6360000
  -1.9150000  19.6300000  28.4030000  -3.8040000  16.9320000  25.9990000
  -4.7910000  17.5060000  26.4640000  -3.8690000  16.1540000  24.9220000
  -3.0290000  15.7300000  24.5500000  -5.1450000  15.8350000  24.2880000
  -5.6930000  16.7620000  24.1130000  -4.9220000  15.1550000  22.9450000
  -5.8840000  14.9820000  22.4600000  -4.3180000  15.7980000  22.3040000
  -4.4180000  14.2000000  23.0680000  -5.9780000  14.9460000  25.2040000
  -7.2000000  15.0800000  25.2800000  -5.3080000  14.0340000  25.8980000
  -4.3060000  13.9550000  25.7920000  -5.9770000  13.1760000  26.8610000
  -6.8910000  12.7910000  26.4140000  -5.0670000  12.0230000  27.2820000
  -4.0640000  12.4080000  27.4600000  -5.4310000  11.6280000  28.2310000
  -4.9840000  10.8570000  26.2970000  -4.5880000  11.2380000  25.3660000
  -4.0120000   9.8040000  26.7970000  -3.9250000   9.0040000  26.0630000
  -3.0280000  10.2500000  26.9480000  -4.3650000   9.3920000  27.7420000
  -6.3660000  10.2570000  26.0730000  -6.2730000   9.3360000  25.4970000
  -6.8400000  10.0290000  27.0280000  -7.0010000  10.9310000  25.5000000
  -6.4080000  13.9790000  28.0780000  -7.3630000  13.6160000  28.7610000
  -5.7020000  15.0720000  28.3460000  -4.9100000  15.3180000  27.7680000
  -6.0390000  15.9270000  29.4780000  -6.1600000  15.2990000  30.3550000
  -4.9200000  16.9270000  29.7690000  -3.9750000  16.3920000  29.8520000
  -4.8320000  17.6230000  28.9390000  -5.1410000  17.7160000  31.0510000
  -6.1150000  18.1900000  30.9920000  -5.0940000  17.0440000  31.9090000
  -4.1250000  18.8380000  31.2210000  -4.2210000  19.2560000  32.2240000
  -3.1200000  18.4280000  31.1340000  -4.2930000  19.8950000  30.2260000
  -3.6600000  19.9000000  29.4350000  -5.1860000  20.8760000  30.3170000
  -6.0010000  20.9380000  31.3600000  -5.9590000  20.2440000  32.0910000
  -6.6820000  21.6800000  31.4120000  -5.2670000  21.7940000  29.3650000
  -4.6590000  21.7480000  28.5630000  -5.9360000  22.5480000  29.4320000
  -7.3420000  16.6680000  29.2210000  -8.2790000  16.5790000  30.0080000
  -7.4000000  17.3940000  28.1100000  -6.6020000  17.4230000  27.4900000
  -8.5850000  18.1750000  27.7700000  -8.8310000  18.7930000  28.6300000
  -8.2980000  19.0630000  26.5580000  -7.6840000  18.4980000  25.8540000
  -9.2390000  19.2930000  26.0540000  -7.6130000  20.3880000  26.9030000
  -6.7130000  20.1680000  27.4770000  -7.1920000  21.1300000  25.6500000
  -6.3610000  21.8000000  25.8720000  -6.9130000  20.3940000  24.9070000
  -8.0260000  21.7080000  25.2510000  -8.5410000  21.2480000  27.7440000
  -8.1160000  22.2480000  27.8300000  -9.5210000  21.3330000  27.2740000
  -8.6470000  20.8540000  28.7530000  -9.8200000  17.3060000  27.5100000
 -10.9200000  17.6400000  27.9550000  -9.6410000  16.1960000  26.7970000
  -8.7230000  15.9630000  26.4420000 -10.7500000  15.2810000  26.5230000
 -11.5460000  15.4320000  27.2480000 -11.3780000  15.5750000  25.1520000
 -10.6260000  15.4460000  24.3720000 -12.1800000  14.8590000  24.9670000
 -11.9520000  16.9570000  25.0290000 -11.4260000  18.0070000  24.3290000
 -10.5160000  17.9600000  23.7490000 -12.2330000  19.1130000  24.4570000
 -12.0460000  20.0060000  24.0220000 -13.3020000  18.7940000  25.2520000
 -14.3780000  19.5750000  25.6650000 -14.4720000  20.6070000  25.3580000
 -15.3140000  18.9830000  26.4680000 -16.1670000  19.5570000  26.8010000
 -15.1990000  17.6440000  26.8620000 -15.9580000  17.2080000  27.4940000
 -14.1340000  16.8670000  26.4520000 -14.0620000  15.8320000  26.7480000
 -13.1590000  17.4440000  25.6320000 -10.3160000  13.8190000  26.5790000
 -10.0270000  13.2150000  25.5420000 -10.2700000  13.2440000  27.7920000
 -10.5680000  13.8720000  29.0910000 -11.4460000  14.5150000  29.0620000
  -9.7000000  14.4240000  29.4480000 -10.8400000  12.6960000  29.9790000
 -11.8920000  12.4210000  29.9090000 -10.5820000  12.9460000  31.0010000
  -9.9920000  11.5830000  29.4400000 -10.3960000  10.6050000  29.7040000
  -8.9800000  11.6810000  29.8330000  -9.9710000  11.8140000  27.9250000
  -8.9830000  11.5840000  27.5230000 -11.0430000  11.0030000  27.2170000
 -12.2230000  11.1540000  27.5300000 -10.6420000  10.1680000  26.2670000
  -9.6620000  10.1120000  26.0310000 -11.6090000   9.5230000  25.3890000
 -12.3040000  10.2810000  25.0490000 -10.9120000   8.9250000  24.1580000
 -11.5920000   8.2480000  23.6390000 -10.5090000  10.0360000  23.2130000
 -10.1290000   9.5540000  22.3350000 -11.3750000  10.6410000  22.9470000
  -9.7370000  10.6690000  23.6530000  -9.7330000   8.2230000  24.5670000
  -9.5860000   8.3870000  25.5000000 -12.4260000   8.4570000  26.1220000
 -13.5360000   8.1270000  25.7080000 -11.8700000   7.9280000  27.2090000
 -10.9480000   8.2280000  27.4880000 -12.6500000   7.1760000  28.1870000
 -13.5730000   6.8080000  27.7420000 -11.8970000   5.9500000  28.6670000
 -12.4120000   5.5200000  29.5270000 -11.8680000   5.1970000  27.8860000
 -10.8790000   6.2150000  28.9570000 -12.9440000   8.1260000  29.3370000
 -12.1620000   8.2180000  30.2770000 -14.0720000   8.8480000  29.2550000
 -15.2050000   8.5500000  28.3620000 -15.5850000   7.5370000  28.4970000
 -14.9480000   8.7470000  27.3340000 -16.2400000   9.5730000  28.7530000
 -16.8890000   9.1470000  29.5200000 -16.8380000   9.8820000  27.8950000
 -15.4850000  10.7140000  29.3290000 -16.0970000  11.2960000  30.0120000
 -15.0940000  11.3390000  28.5300000 -14.3170000  10.0500000  30.0630000
 -13.4450000  10.7030000  30.0260000 -14.6890000   9.8150000  31.5280000
 -14.8610000  10.7910000  32.2560000 -14.8030000   8.5630000  31.9570000
 -14.6360000   7.7900000  31.3290000 -15.2440000   8.2780000  33.3170000
 -14.6790000   8.8720000  34.0230000 -16.7040000   8.6680000  33.4860000
 -16.9760000   8.5530000  34.5320000 -16.8880000   9.7050000  33.2100000
 -17.3340000   8.0210000  32.8740000 -15.0520000   6.8170000  33.7020000
 -15.1550000   5.9200000  32.8640000 -14.7620000   6.5930000  34.9800000
 -14.6620000   7.3720000  35.6160000 -14.7770000   5.2530000  35.5470000
 -15.4030000   4.6050000  34.9330000 -13.3680000   4.6450000  35.5860000
 -13.4240000   3.6500000  36.0310000 -13.0210000   4.5140000  34.5600000
 -12.3520000   5.4640000  36.3380000 -12.1440000   5.2640000  37.6930000
 -12.7320000   4.5280000  38.2230000 -11.1960000   6.0030000  38.3860000
 -11.0540000   5.8390000  39.4440000 -10.4330000   6.9430000  37.7220000
  -9.6940000   7.5200000  38.2590000 -10.6210000   7.1430000  36.3680000
 -10.0180000   7.8710000  35.8450000 -11.5730000   6.4000000  35.6810000
 -11.7000000   6.5470000  34.6210000 -15.4070000   5.3070000  36.9380000
 -15.4740000   6.3720000  37.5570000 -15.8820000   4.1610000  37.4170000
 -15.7700000   3.3070000  36.8910000 -16.6740000   4.1120000  38.6430000
 -16.8790000   5.1250000  38.9810000 -18.0260000   3.4470000  38.3610000
 -18.4010000   3.8340000  37.4160000 -17.9180000   2.3840000  38.2730000
 -18.9810000   3.7450000  39.3640000 -18.9930000   4.6950000  39.5040000
 -15.9380000   3.3740000  39.7660000 -15.0640000   2.5440000  39.5090000
 -16.2850000   3.6960000  41.0100000 -17.0110000   4.3810000  41.1680000
 -15.6950000   3.0450000  42.1820000 -15.2980000   2.0780000  41.8910000
 -14.5570000   3.8920000  42.7570000 -15.0050000   4.8120000  43.1310000
 -14.1360000   3.3740000  43.6190000 -13.4230000   4.2760000  41.8050000
 -13.8210000   4.5750000  40.8380000 -12.6680000   5.4780000  42.3340000
 -11.7790000   5.6740000  41.7350000 -13.3150000   6.3550000  42.3110000
 -12.3800000   5.2830000  43.3620000 -12.4800000   3.1090000  41.5940000
 -13.0170000   2.2810000  41.1500000 -11.6770000   3.3990000  40.9160000
 -12.0500000   2.7930000  42.5460000 -16.7640000   2.8190000  43.2440000
 -17.7560000   3.5450000  43.2840000 -16.5770000   1.8130000  44.0950000
 -15.7550000   1.2320000  44.0340000 -17.4550000   1.6460000  45.2560000
 -18.0830000   2.5190000  45.3200000 -18.3600000   0.4100000  45.1010000
 -19.1370000   0.4730000  45.8650000 -18.8790000   0.4500000  44.1450000
 -17.6670000  -0.9320000  45.2590000 -17.1980000  -1.6250000  44.1510000
 -17.3160000  -1.2050000  43.1670000 -16.5720000  -2.8480000  44.2880000
 -16.2140000  -3.3790000  43.4200000 -16.4150000  -3.4020000  45.5430000
 -15.7910000  -4.6210000  45.6770000 -15.1470000  -4.7750000  44.9750000
 -16.8810000  -2.7400000  46.6580000 -16.7580000  -3.1730000  47.6390000
 -17.5060000  -1.5170000  46.5130000 -17.8980000  -1.0190000  47.3830000
 -16.6550000   1.5600000  46.5580000 -15.5370000   1.0350000  46.5820000
 -17.2390000   2.0880000  47.6320000 -18.1580000   2.5010000  47.5420000
 -16.6490000   2.0150000  48.9690000 -15.6250000   2.3860000  48.9190000
 -17.4200000   2.9040000  49.9340000 -16.9170000   2.9190000  50.8980000
 -17.4580000   3.9230000  49.5480000 -18.4390000   2.5360000  50.0600000
 -16.6240000   0.5770000  49.4820000 -17.6760000  -0.0460000  49.6270000
 -15.4300000   0.0540000  49.7550000 -14.5970000   0.6090000  49.6220000
 -15.2970000  -1.3070000  50.2780000 -15.7820000  -1.9910000  49.5810000
 -13.8250000  -1.7050000  50.4040000 -13.3620000  -1.1180000  51.1990000
 -13.8030000  -2.7520000  50.7070000 -13.0160000  -1.5080000  49.1420000
 -13.5580000  -1.9530000  48.3060000 -12.8840000  -0.4650000  48.9090000
 -11.6560000  -2.1750000  49.2400000 -11.0650000  -1.8700000  48.3770000
 -11.1580000  -1.8670000  50.1490000 -11.7900000  -3.6840000  49.2420000
 -12.2700000  -3.9950000  50.1700000 -12.4160000  -3.9890000  48.4020000
 -10.4640000  -4.3500000  49.1340000 -10.3760000  -5.0520000  49.8550000
 -10.3640000  -4.7690000  48.2210000  -9.7350000  -3.6590000  49.2580000
 -15.9880000  -1.4410000  51.6390000 -16.6490000  -2.4450000  51.9120000
 -15.8240000  -0.4240000  52.4840000 -15.2970000   0.3860000  52.1920000
 -16.4540000  -0.3820000  53.8030000 -17.2720000  -1.1000000  53.8580000
 -15.4470000  -0.7300000  54.9050000 -14.6780000   0.0450000  54.9010000
 -15.9190000  -0.6860000  55.8860000 -14.7390000  -2.0620000  54.7260000
 -14.3460000  -2.1730000  53.7160000 -13.8830000  -2.0750000  55.4030000
 -15.6160000  -3.2390000  55.0860000 -16.5930000  -3.0430000  55.8410000
 -15.3310000  -4.3590000  54.6090000 -17.0380000   1.0020000  54.0630000
 -16.9060000   1.8980000  53.2310000 -17.6810000   1.1780000  55.2150000
 -17.8030000   0.4110000  55.8590000 -18.0860000   2.5120000  55.6400000
 -18.7390000   2.9410000  54.8810000 -18.8490000   2.4740000  56.9750000
 -18.3520000   1.7920000  57.6670000 -18.8310000   3.4740000  57.4120000
 -20.3130000   2.0640000  56.8100000 -20.6300000   1.4150000  55.7930000
 -21.1460000   2.3780000  57.6960000 -16.8200000   3.3610000  55.7440000
 -15.7670000   2.8580000  56.1330000 -16.9170000   4.6300000  55.3560000
 -17.8070000   4.9800000  55.0240000 -15.7880000   5.5570000  55.4380000
 -15.3850000   5.5190000  56.4510000 -14.6590000   5.1820000  54.4540000
 -14.2550000   4.2020000  54.7020000 -15.1790000   5.1480000  53.0200000
 -14.3600000   4.8860000  52.3490000 -15.9570000   4.3940000  52.9100000
 -15.5760000   6.1190000  52.7230000 -13.6000000   6.1420000  54.5560000
 -13.1590000   6.0000000  55.3990000 -16.2280000   6.9900000  55.1560000
 -17.3890000   7.2440000  54.8340000 -15.3000000   7.9310000  55.2850000
 -14.3570000   7.6870000  55.5450000 -15.6080000   9.3250000  54.9950000
 -16.6070000   9.4130000  54.5710000 -15.5640000  10.1920000  56.2630000
 -14.5520000  10.1860000  56.6710000 -15.9390000  11.6300000  55.9310000
 -15.9460000  12.2280000  56.8420000 -15.2180000  12.0770000  55.2500000
 -16.9310000  11.6670000  55.4820000 -16.5030000   9.6290000  57.3120000
 -16.5480000  10.3060000  58.1660000 -17.5070000   9.5070000  56.9120000
 -16.1420000   8.6660000  57.6740000 -14.6400000   9.8820000  53.9600000
 -13.4270000   9.6900000  54.0610000 -15.1850000  10.5670000  52.9590000
 -16.1860000  10.6990000  52.9180000 -14.3750000  11.0840000  51.8650000
 -13.4110000  10.5840000  51.8820000 -15.0390000  10.7850000  50.5200000
 -15.4230000   9.7630000  50.5440000 -15.9020000  11.4450000  50.4130000
 -14.1500000  10.9210000  49.2820000 -13.6110000  11.8640000  49.3390000
 -13.1260000   9.8040000  49.2390000 -12.4200000   9.9990000  48.4350000
 -12.5940000   9.6820000  50.1740000 -13.6350000   8.8790000  48.9980000
 -14.9870000  10.9260000  48.0160000 -14.3320000  11.0200000  47.1490000
 -15.5580000  10.0010000  47.9320000 -15.6720000  11.7750000  48.0260000
 -14.1430000  12.5810000  52.0070000 -15.0890000  13.3550000  52.1700000
 -12.8770000  12.9810000  51.9430000 -12.1350000  12.3050000  51.8130000
 -12.5100000  14.3800000  52.0650000 -11.4370000  14.4850000  51.9120000
 -13.0330000  14.9600000  51.3070000 -12.8690000  14.9340000  53.4280000
 -12.9920000  16.1460000  53.6040000 -13.0420000  14.0310000  54.3890000
 -12.9030000  13.0540000  54.1740000 -13.4440000  14.3840000  55.7350000
 -13.6030000  13.4660000  56.2990000 -12.6320000  14.9380000  56.2060000
 -14.7070000  15.2180000  55.8080000 -14.8940000  15.9740000  56.7560000
 -15.5790000  15.0910000  54.8140000 -15.3800000  14.4780000  54.0360000
 -16.7630000  15.9410000  54.7530000 -16.9670000  16.3550000  55.7280000
 -16.5250000  17.1010000  53.7780000 -16.1960000  16.6660000  52.8350000
 -17.4460000  17.6320000  53.5860000 -15.4610000  18.0940000  54.2430000
 -15.8340000  18.6280000  55.1010000 -14.5440000  17.6120000  54.5500000
 -15.1560000  19.1700000  53.2170000 -14.7260000  20.2730000  53.6230000
 -15.3370000  18.9120000  52.0080000 -18.0200000  15.1720000  54.3560000
 -19.1230000  15.4880000  54.8110000 -17.8450000  14.1550000  53.5170000
 -16.9220000  13.9450000  53.1630000 -18.9720000  13.4050000  52.9730000
 -19.8990000  13.8430000  53.3270000 -19.0370000  13.5860000  51.4530000
 -18.3070000  12.9370000  50.9680000 -20.0260000  13.2900000  51.1010000
 -18.7440000  15.0070000  51.0150000 -19.7420000  15.9760000  51.0190000
 -20.7420000  15.7170000  51.3350000 -19.4770000  17.2780000  50.6310000
 -20.2610000  18.0220000  50.6490000 -18.2010000  17.6240000  50.2320000
 -17.9340000  18.9170000  49.8430000 -17.0060000  19.0630000  49.6340000
 -17.1930000  16.6800000  50.2170000 -16.1960000  16.9560000  49.9050000
 -17.4670000  15.3810000  50.6080000 -16.6730000  14.6500000  50.5890000
 -18.8760000  11.9260000  53.3370000 -18.1170000  11.1780000  52.7200000
 -19.6500000  11.5030000  54.3520000 -20.6180000  12.3430000  55.0800000
 -21.2950000  12.8730000  54.4110000 -20.0940000  13.0290000  55.7350000
 -21.4100000  11.3400000  55.8800000 -22.2450000  10.9850000  55.2730000
 -21.8050000  11.7590000  56.8020000 -20.4780000  10.2100000  56.1300000
 -21.0140000   9.2820000  56.3360000 -19.8260000  10.4540000  56.9680000
 -19.6430000  10.1230000  54.8490000 -18.6310000   9.8070000  55.0830000
 -20.2710000   9.1510000  53.8570000 -21.2880000   9.4720000  53.2420000
 -19.6730000   7.9740000  53.7120000 -18.9140000   7.7270000  54.3140000
 -20.1590000   6.9780000  52.7640000 -21.0920000   7.3110000  52.3100000
 -19.1430000   6.7690000  51.6350000 -18.2630000   6.2890000  52.0670000
 -19.5740000   6.0640000  50.9220000 -18.6670000   8.0070000  50.8720000
 -18.1900000   8.6950000  51.5700000 -17.6270000   7.6320000  49.8270000
 -17.2850000   8.5260000  49.3050000 -16.7740000   7.1690000  50.3220000
 -18.0530000   6.9300000  49.1090000 -19.8430000   8.7160000  50.2280000
 -19.4790000   9.5120000  49.5780000 -20.4260000   8.0110000  49.6330000
 -20.4860000   9.1660000  50.9750000 -20.4430000   5.6460000  53.4450000
 -19.6830000   5.2050000  54.3050000 -21.5370000   5.0060000  53.0540000
 -22.1300000   5.3970000  52.3350000 -21.8360000   3.6660000  53.5370000
 -21.4620000   3.5480000  54.5550000 -23.3450000   3.4330000  53.5820000
 -23.7310000   3.5160000  52.5650000 -23.5540000   2.4220000  53.9320000
 -24.0950000   4.4210000  54.4600000 -23.5030000   5.3150000  54.6580000
 -24.9830000   4.7440000  53.9130000 -24.5380000   3.8320000  55.7900000
 -23.7140000   3.2050000  56.5090000 -25.7310000   3.9980000  56.1130000
 -21.1580000   2.6280000  52.6460000 -20.7520000   2.9320000  51.5250000
 -21.0230000   1.4110000  53.1600000 -21.3510000   1.2300000  54.0990000
 -20.4360000   0.3150000  52.4030000 -19.4050000   0.5800000  52.1650000
 -20.4270000  -0.9640000  53.2460000 -19.8640000  -0.7700000  54.1600000
 -21.4550000  -1.1960000  53.5300000 -19.8270000  -2.1730000  52.5610000
 -20.3470000  -2.3630000  51.6220000 -18.8040000  -1.9420000  52.3460000
 -19.9470000  -3.4210000  53.4280000 -19.4090000  -3.2610000  54.3640000
 -21.0000000  -3.6010000  53.6510000 -19.3710000  -4.6450000  52.7240000
 -19.8550000  -4.7590000  51.7530000 -18.3050000  -4.4710000  52.5630000
 -19.5440000  -5.8960000  53.5120000 -20.5240000  -6.1370000  53.5580000
 -19.0250000  -6.6470000  53.0800000 -19.1850000  -5.7450000  54.4460000
 -21.2080000   0.0990000  51.1040000 -22.4400000   0.0450000  51.1100000
 -20.4860000   0.0080000  49.9900000 -19.4830000   0.0970000  50.0350000
 -21.1020000  -0.2780000  48.7040000 -20.3400000  -0.7240000  48.0650000
 -21.8980000  -1.0120000  48.8380000 -21.6700000   0.9260000  47.9740000
 -22.3640000   0.7770000  46.9670000 -21.3810000   2.1210000  48.4800000
 -20.8540000   2.1920000  49.3400000 -21.8090000   3.3580000  47.8280000
 -22.8500000   3.2550000  47.5190000 -21.7050000   4.5370000  48.7960000
 -20.7940000   4.4580000  49.3900000 -21.6370000   5.4600000  48.2180000
 -22.9140000   4.6560000  49.6980000 -23.7260000   3.7030000  49.7460000
 -23.0550000   5.7070000  50.3590000 -20.9840000   3.6240000  46.5720000
 -19.8150000   3.2520000  46.4990000 -21.5880000   4.2810000  45.5880000
 -22.5570000   4.5430000  45.6750000 -20.9600000   4.4080000  44.2780000
 -20.1460000   3.6870000  44.2000000 -21.9630000   4.0260000  43.1920000
 -22.7660000   4.7640000  43.1630000 -21.4400000   4.0420000  42.2350000
 -22.5660000   2.6500000  43.4080000 -21.7600000   1.9240000  43.5260000
 -23.1670000   2.6500000  44.3180000 -23.4470000   2.2080000  42.2650000
 -23.4770000   2.9060000  41.2310000 -24.1070000   1.1570000  42.4030000
 -20.3920000   5.7940000  43.9900000 -21.0440000   6.8120000  44.2240000
 -19.1670000   5.8180000  43.4770000 -18.6950000   4.9570000  43.2770000
 -18.5320000   7.0590000  43.0530000 -19.1730000   7.9090000  43.2830000
 -17.2060000   7.2680000  43.7840000 -16.5210000   6.4940000  43.4400000
 -16.7950000   8.2240000  43.4530000 -17.1910000   7.2480000  45.3120000
 -17.5500000   6.2790000  45.6610000 -15.7680000   7.4220000  45.8130000
 -15.7610000   7.4680000  46.9020000 -15.1640000   6.5690000  45.4990000
 -15.3220000   8.3250000  45.4170000 -18.1000000   8.3240000  45.8820000
 -18.0310000   8.3320000  46.9690000 -17.8120000   9.3020000  45.4960000
 -19.1280000   8.1100000  45.6070000 -18.2890000   7.0520000  41.5480000
 -18.0020000   6.0050000  40.9670000 -18.4110000   8.2210000  40.9240000
 -18.6360000   9.0420000  41.4610000 -18.0190000   8.4040000  39.5280000
 -17.6560000   7.4670000  39.1070000 -19.1960000   8.8800000  38.6690000
 -19.6840000   9.6960000  39.2020000 -18.8180000   9.3080000  37.7420000
 -20.2740000   7.8470000  38.3520000 -20.6300000   7.4310000  39.2840000
 -21.1010000   8.3420000  37.8440000 -19.7170000   6.4590000  37.3400000
 -18.8020000   7.3130000  36.0670000 -18.5440000   6.6080000  35.2770000
 -19.4110000   8.1140000  35.6480000 -17.8820000   7.7200000  36.4850000
 -16.8870000   9.4180000  39.4400000 -17.0390000  10.5560000  39.8860000
 -15.7540000   9.0110000  38.8720000 -15.6700000   8.0650000  38.5260000
 -14.6460000   9.9380000  38.6450000 -14.6370000  10.6940000  39.4330000
 -13.2840000   9.2300000  38.6770000 -13.2640000   8.4610000  37.9020000
 -12.1680000  10.2240000  38.3900000 -12.0130000  10.8210000  39.2800000
 -11.2480000   9.6770000  38.1840000 -12.3610000  10.8740000  37.5380000
 -13.0730000   8.5570000  40.0180000 -12.0630000   8.1500000  40.0730000
 -13.2030000   9.2760000  40.8280000 -13.7820000   7.7390000  40.1460000
 -14.8200000  10.6370000  37.3000000 -14.5990000  10.0410000  36.2450000
 -15.2360000  11.8990000  37.3460000 -15.4000000  12.3500000  38.2370000
 -15.4770000  12.6700000  36.1330000 -15.9210000  12.0000000  35.3980000
 -16.4540000  13.8160000  36.4120000 -17.2420000  13.4110000  37.0500000
 -15.9540000  14.5840000  37.0020000 -17.1520000  14.4920000  35.2320000
 -16.3990000  15.0050000  34.6330000 -17.8570000  13.4720000  34.3480000
 -17.1300000  12.8420000  33.8370000 -18.5290000  12.8540000  34.9440000
 -18.4390000  13.9900000  33.5850000 -18.1410000  15.5310000  35.7430000
 -18.5090000  16.1320000  34.9120000 -18.9840000  15.0420000  36.2330000
 -17.6550000  16.1800000  36.4690000 -14.1520000  13.1950000  35.5940000
 -13.7110000  14.2880000  35.9500000 -13.5200000  12.4000000  34.7370000
 -13.9450000  11.5230000  34.4670000 -12.1530000  12.6680000  34.2990000
 -11.5320000  12.6600000  35.1960000 -11.6470000  11.5430000  33.3700000
 -12.0630000  11.6670000  32.3730000 -10.1360000  11.5790000  33.2660000
  -9.7740000  10.9360000  32.4660000  -9.7960000  12.5840000  33.0500000
  -9.6850000  11.2730000  34.2110000 -12.0970000  10.1800000  33.8980000
 -11.8880000  10.1100000  34.9670000 -13.1560000  10.0910000  33.7710000
 -11.4260000   9.0060000  33.2170000 -12.1050000   8.1560000  33.2130000
 -11.1760000   9.2580000  32.1920000 -10.5180000   8.7370000  33.7460000
 -11.9400000  14.0240000  33.6010000 -10.9260000  14.6740000  33.8480000
 -12.8800000  14.4640000  32.7380000 -14.0500000  13.8090000  32.1210000
 -14.9320000  13.9170000  32.7520000 -13.8290000  12.7780000  31.8950000
 -14.2130000  14.5520000  30.8310000 -15.2460000  14.5190000  30.4820000
 -13.5550000  14.1270000  30.0730000 -13.7860000  15.9410000  31.1440000
 -14.6090000  16.4620000  31.6340000 -13.4830000  16.4790000  30.2450000
 -12.6180000  15.7750000  32.1270000 -11.6800000  15.7350000  31.5700000
 -12.5850000  16.9360000  33.1300000 -11.8370000  17.8910000  32.9190000
 -13.3720000  16.8540000  34.2010000 -13.9510000  16.0390000  34.3450000
 -13.4100000  17.9230000  35.2030000 -13.3680000  18.8880000  34.6950000
 -14.7150000  17.8680000  35.9970000 -14.9030000  16.8390000  36.3060000
 -14.5970000  18.4670000  36.8960000 -15.9220000  18.3890000  35.2270000
 -15.9350000  17.9210000  34.2470000 -16.8280000  18.1010000  35.7500000
 -15.9280000  19.9010000  35.0980000 -15.7190000  20.6140000  36.0780000
 -16.1650000  20.3960000  33.8870000 -16.2620000  21.4010000  33.7950000
 -16.3480000  19.7880000  33.1070000 -12.2130000  17.8580000  36.1510000
 -11.7550000  18.8840000  36.6500000 -11.7170000  16.6480000  36.3970000
 -12.1570000  15.8330000  35.9940000 -10.4950000  16.4580000  37.1700000
 -10.6420000  16.8730000  38.1650000 -10.1590000  14.9700000  37.2950000
 -10.9210000  14.4910000  37.9070000 -10.2230000  14.5260000  36.3030000
  -8.7700000  14.6440000  37.8420000  -8.0110000  15.1570000  37.2550000
  -8.6750000  15.1180000  39.2690000  -7.6380000  15.0400000  39.5920000
  -8.9730000  16.1600000  39.3710000  -9.2630000  14.4950000  39.9300000
  -8.4620000  13.1580000  37.7500000  -7.4470000  12.9680000  38.0980000
  -9.1650000  12.5770000  38.3400000  -8.5330000  12.8370000  36.7090000
  -9.3430000  17.1990000  36.5100000  -8.5160000  17.8230000  37.1800000
  -9.3100000  17.1330000  35.1830000 -10.0170000  16.6000000  34.6970000
  -8.2370000  17.7300000  34.3960000  -7.2940000  17.5850000  34.9230000
  -8.1340000  17.0370000  33.0380000  -9.0890000  17.1320000  32.5190000
  -7.3830000  17.5450000  32.4590000  -7.7650000  15.5870000  33.1220000
  -7.8850000  14.7270000  32.0520000  -8.2250000  14.9820000  31.1340000
  -7.4840000  13.5210000  32.4110000  -7.4620000  12.6470000  31.7750000
  -7.1090000  13.5660000  33.6780000  -7.2730000  14.8480000  34.1450000
  -7.0520000  15.1980000  35.1400000  -8.4240000  19.2310000  34.1960000
  -7.5980000  19.8820000  33.5620000  -9.5120000  19.7720000  34.7360000
 -10.1620000  19.1940000  35.2520000  -9.7650000  21.2080000  34.6840000
  -9.0040000  21.7120000  34.0910000 -11.1230000  21.4890000  34.0350000
 -11.8630000  20.8130000  34.4660000 -11.4430000  22.5100000  34.2480000
 -11.1120000  21.3360000  32.5180000 -10.6120000  22.2000000  32.0780000
 -10.5400000  20.4460000  32.2570000 -12.5110000  21.2090000  31.9270000
 -13.0070000  20.3250000  32.3300000 -13.0940000  22.0850000  32.2150000
 -12.4690000  21.1450000  30.4670000 -12.6990000  21.9940000  29.9650000
 -12.1350000  20.0600000  29.7720000 -11.8080000  18.9370000  30.3980000
 -11.7940000  18.9120000  31.4060000 -11.5420000  18.1260000  29.8600000
 -12.1210000  20.0960000  28.4470000 -12.3560000  20.9560000  27.9720000
 -11.8700000  19.2720000  27.9210000  -9.6950000  21.8170000  36.0810000
 -10.1100000  22.9570000  36.2950000  -9.1640000  21.0420000  37.0250000
  -8.8620000  20.1070000  36.7930000  -8.9750000  21.4980000  38.3980000
  -9.9330000  21.8640000  38.7720000  -8.5230000  20.3400000  39.2990000
  -9.1460000  19.4740000  39.0720000  -7.4860000  20.0700000  39.0980000
  -8.7090000  20.6340000  40.7830000  -8.8440000  21.8190000  41.1530000
  -8.7180000  19.6720000  41.5840000  -7.9500000  22.6230000  38.4140000
  -6.7550000  22.3810000  38.2360000  -8.4210000  23.8500000  38.6230000
  -9.4130000  23.9850000  38.7530000  -7.5530000  25.0220000  38.5730000
  -7.0190000  24.9980000  37.6250000  -8.3850000  26.3030000  38.6350000
  -8.9930000  26.2860000  39.5410000  -7.7070000  27.1560000  38.6980000
  -9.2780000  26.5020000  37.4320000  -8.6630000  26.5910000  36.5360000
  -9.9370000  25.6400000  37.3210000 -10.1300000  27.7430000  37.5720000
 -10.7220000  27.6730000  38.4860000  -9.4830000  28.6200000  37.6310000
 -11.0660000  27.8870000  36.3840000 -10.4850000  27.9610000  35.4630000
 -11.6840000  26.9890000  36.3320000 -11.9550000  29.0740000  36.5180000
 -12.0420000  29.3240000  37.4930000 -11.5590000  29.8530000  36.0090000
 -12.8690000  28.8560000  36.1430000  -6.5100000  25.0260000  39.6870000
  -5.4630000  25.6610000  39.5570000  -6.7900000  24.3110000  40.7750000
  -7.6480000  23.7790000  40.8220000  -5.8660000  24.2490000  41.9050000
  -5.3750000  25.2170000  42.0150000  -6.6070000  23.9400000  43.2370000
  -5.8870000  23.9180000  44.0560000  -7.6430000  25.0140000  43.5410000
  -8.1120000  24.8010000  44.5020000  -7.1590000  25.9900000  43.5950000
  -8.4150000  25.0350000  42.7710000  -7.2610000  22.6670000  43.1560000
  -7.8730000  22.6520000  42.4100000  -4.7780000  23.2020000  41.6680000
  -4.1570000  22.7120000  42.6090000  -4.5560000  22.8680000  40.4000000
  -5.1180000  23.2900000  39.6760000  -3.5410000  21.8970000  39.9960000
  -2.7520000  21.8570000  40.7470000  -4.1450000  20.4750000  39.7980000
  -4.9840000  20.5490000  39.1070000  -3.1190000  19.5270000  39.1860000
  -3.5200000  18.5270000  39.2170000  -2.9350000  19.7810000  38.1430000
  -2.1770000  19.5590000  39.7340000  -4.6780000  19.8960000  41.1150000
  -5.3540000  20.5980000  41.5980000  -5.2820000  19.0210000  40.8760000
  -3.6070000  19.4600000  42.0930000  -4.0640000  19.2730000  43.0650000
  -3.1640000  18.5280000  41.7490000  -2.8440000  20.2270000  42.2130000
  -2.8900000  22.3500000  38.6890000  -1.6850000  22.1940000  38.4840000
  -3.7020000  22.9310000  37.8110000  -4.6840000  23.0240000  38.0290000
  -3.2810000  23.2070000  36.4440000  -2.2960000  22.7760000  36.2660000
  -4.2450000  22.5340000  35.4620000  -5.2320000  22.9850000  35.5760000
  -3.9100000  22.7290000  34.4430000  -4.3780000  21.0430000  35.6270000
  -5.4160000  20.3670000  36.2040000  -6.3180000  20.8170000  36.5800000
  -5.1860000  19.0120000  36.1560000  -5.8130000  18.3190000  36.5410000
  -3.9800000  18.7890000  35.5430000  -3.3210000  17.5930000  35.2680000
  -3.7450000  16.6410000  35.5430000  -2.1110000  17.6710000  34.6350000
  -1.5770000  16.7610000  34.4040000  -1.5500000  18.9040000  34.2760000
  -0.5920000  18.9260000  33.7750000  -2.2040000  20.0940000  34.5480000
  -1.7590000  21.0400000  34.2780000  -3.4430000  20.0460000  35.1950000
  -3.1800000  24.6960000  36.1020000  -2.6990000  25.0570000  35.0270000
  -3.6350000  25.5560000  37.0050000  -4.0300000  25.2250000  37.8730000
  -3.6520000  26.9830000  36.7420000  -3.4320000  27.5120000  37.6690000
  -2.8940000  27.2630000  36.0090000  -5.0150000  27.4250000  36.2500000
  -5.9520000  26.6300000  36.2170000  -5.1360000  28.6930000  35.8690000
  -4.3430000  29.3160000  35.9110000  -6.4140000  29.2170000  35.3960000
  -7.2290000  28.7240000  35.9270000  -6.5210000  30.7210000  35.6640000
  -5.6760000  31.2320000  35.2000000  -7.4380000  31.0980000  35.2100000
  -6.5620000  31.0500000  37.1440000  -6.9010000  30.1560000  37.9500000
  -6.2600000  32.2070000  37.5020000  -6.6040000  28.9400000  33.9100000
  -7.7290000  28.9340000  33.4100000  -5.4970000  28.7040000  33.2140000
  -4.6000000  28.6870000  33.6800000  -5.5230000  28.4560000  31.7770000
  -6.2910000  29.0820000  31.3220000  -4.1760000  28.8450000  31.1520000
  -4.2040000  28.6630000  30.0790000  -4.0250000  29.9160000  31.2950000
  -2.9990000  28.1110000  31.7830000  -1.9700000  27.9340000  31.0960000
  -3.1040000  27.7050000  32.9600000  -5.8550000  26.9980000  31.4590000
  -5.1630000  26.3530000  30.6700000  -6.9220000  26.4840000  32.0650000
  -7.4570000  27.0550000  32.7050000  -7.2790000  25.0770000  31.9150000
  -6.3940000  24.4740000  32.1260000  -8.3880000  24.6620000  32.9110000
  -8.8240000  23.7190000  32.5800000  -7.8020000  24.4290000  34.2980000
  -8.5450000  24.6300000  35.0710000  -7.4720000  23.3920000  34.3850000
  -6.9410000  25.0790000  34.4590000  -9.5040000  25.7040000  32.9560000
 -10.3210000  25.3170000  33.5670000  -9.1630000  26.6320000  33.4120000
  -9.9060000  25.9050000  31.9800000  -7.7360000  24.7290000  30.5000000
  -7.3440000  23.6970000  29.9550000  -8.5520000  25.5910000  29.9010000
  -8.8300000  26.4360000  30.3780000  -9.1430000  25.2880000  28.6010000
  -9.5000000  24.2570000  28.6140000 -10.3460000  26.2000000  28.3370000
  -9.9970000  27.2340000  28.3540000 -10.7390000  26.0110000  27.3370000
 -11.4810000  26.0680000  29.3550000 -11.1200000  26.2010000  30.3650000
 -12.1840000  26.8810000  29.1660000 -12.2560000  24.7620000  29.2340000
 -12.0640000  24.0310000  28.2370000 -13.0680000  24.4680000  30.1400000
  -8.1310000  25.4090000  27.4590000  -8.3670000  24.9060000  26.3590000
  -7.0030000  26.0590000  27.7270000  -6.8320000  26.4130000  28.6570000
  -6.0030000  26.3220000  26.6950000  -6.5120000  26.5610000  25.7600000
  -5.1620000  27.5460000  27.0860000  -5.7580000  28.4500000  26.9560000
  -4.9210000  27.4560000  28.1440000  -3.8400000  27.7020000  26.3400000
  -3.2840000  26.7680000  26.3460000  -4.0460000  27.9660000  25.3010000
  -2.9210000  28.7350000  26.9740000  -2.4730000  28.5170000  28.1230000
  -2.6490000  29.7650000  26.3200000  -5.1130000  25.0970000  26.4550000
  -4.7780000  24.3660000  27.3890000  -4.7370000  24.8750000  25.1970000
  -5.0230000  25.5150000  24.4710000  -3.9540000  23.7020000  24.8180000
  -4.1950000  22.8810000  25.4950000  -4.3460000  23.2500000  23.4080000
  -5.4320000  23.1480000  23.3700000  -4.0760000  24.0200000  22.6840000
  -3.7440000  21.9340000  22.9990000  -4.3510000  20.7420000  23.3500000
  -5.2460000  20.7610000  23.9220000  -3.8000000  19.5280000  22.9720000
  -4.2930000  18.6040000  23.2410000  -2.6360000  19.4990000  22.2360000
  -2.2050000  18.5520000  21.9530000  -2.0270000  20.6780000  21.8750000
  -1.1410000  20.6340000  21.2690000  -2.5800000  21.8880000  22.2520000
  -2.1080000  22.8050000  21.9320000  -2.4450000  23.9520000  24.8880000
  -1.8300000  24.3700000  23.9090000  -1.8510000  23.6890000  26.0470000
  -2.3960000  23.3390000  26.8230000  -0.4090000  23.8380000  26.2100000
   0.0490000  24.2090000  25.2950000  -0.0830000  24.8780000  27.2860000
  -0.7450000  24.7540000  28.1450000   0.9340000  24.6500000  27.6050000
  -0.0910000  26.3230000  26.8180000   0.2290000  26.3920000  25.7780000
  -1.1030000  26.7090000  26.8950000   0.8520000  27.1710000  27.6660000
   1.8600000  27.0760000  27.2660000   0.5600000  28.2170000  27.5600000
   0.7920000  26.8110000  29.0830000  -0.0470000  27.0750000  29.5860000
   1.7660000  26.1850000  29.7400000   2.8880000  25.8550000  29.1100000
   2.9830000  26.0470000  28.1240000   3.6320000  25.3880000  29.6060000
   1.6210000  25.8930000  31.0260000   0.7710000  26.1650000  31.5010000
   2.3600000  25.4280000  31.5290000   0.2590000  22.5190000  26.5710000
   0.2740000  22.1270000  27.7360000   0.8240000  21.8300000  25.5700000
   0.6880000  22.1220000  24.1330000   1.3470000  22.9460000  23.8560000
  -0.3430000  22.3290000  23.8560000   1.1480000  20.8450000  23.4840000
   1.6230000  21.0260000  22.5250000   0.2980000  20.1730000  23.3620000
   2.1080000  20.2340000  24.4240000   3.0840000  20.7020000  24.2910000
   2.1860000  19.1560000  24.2770000   1.5490000  20.5760000  25.8070000
   0.8460000  19.8090000  26.1240000   2.6820000  20.7000000  26.8300000
   3.0460000  19.7000000  27.4470000   3.2080000  21.9070000  27.0230000
   2.8670000  22.6950000  26.4890000   4.3800000  22.1120000  27.8740000
   5.1610000  21.4210000  27.5580000   4.9130000  23.5380000  27.7000000
   4.0960000  24.2390000  27.7760000   5.6160000  23.7520000  28.5060000
   5.6650000  23.7730000  26.3920000   6.2640000  24.6790000  26.4990000
   6.3470000  22.9410000  26.2080000   4.7470000  23.9650000  25.1940000
   3.5810000  24.3810000  25.3850000   5.1970000  23.7040000  24.0560000
   4.1220000  21.8340000  29.3600000   5.0480000  21.8860000  30.1710000
   2.8710000  21.5410000  29.7130000   2.1430000  21.5230000  29.0120000
   2.5290000  21.1590000  31.0820000   2.9140000  21.9170000  31.7660000
   1.0110000  21.0660000  31.2610000   0.6630000  20.2210000  30.6640000
   0.7890000  20.8480000  32.3070000   0.2280000  22.2960000  30.8390000
   0.4090000  23.0830000  31.5720000   0.5650000  22.6960000  29.8990000
  -1.2590000  21.9880000  30.8380000  -1.4110000  21.0220000  30.3620000
  -1.6180000  21.8950000  31.8630000  -2.0410000  22.9610000  30.0820000
  -2.1510000  22.7910000  29.0920000  -2.6520000  24.0140000  30.6180000
  -2.5690000  24.2400000  31.9230000  -2.9960000  25.0710000  32.3120000
  -2.0620000  23.6110000  32.5230000  -3.3460000  24.8430000  29.8500000
  -3.4850000  24.6550000  28.8680000  -3.6430000  25.7260000  30.2300000
   3.1670000  19.8210000  31.4420000   3.5000000  19.5650000  32.6000000
   3.3270000  18.9700000  30.4330000   3.0360000  19.2400000  29.5040000
   3.8480000  17.6210000  30.6220000   3.7350000  17.3260000  31.6660000
   3.0560000  16.6210000  29.7690000   3.1150000  16.9200000  28.7210000
   3.5040000  15.6300000  29.8560000   1.6070000  16.5100000  30.1590000
   0.6610000  17.3720000  29.6290000   0.9540000  18.1290000  28.9160000
  -0.6710000  17.2760000  29.9980000  -1.4230000  17.8990000  29.5990000
  -1.0670000  16.3140000  30.9060000  -2.1050000  16.2290000  31.1900000
  -0.1340000  15.4490000  31.4430000  -0.4400000  14.7010000  32.1600000
   1.1940000  15.5510000  31.0720000   1.9170000  14.8680000  31.4960000
   5.3330000  17.5490000  30.2860000   5.8820000  16.4650000  30.0800000
   5.9760000  18.7120000  30.2350000   5.4770000  19.5740000  30.4050000
   7.4060000  18.7950000  29.9650000   7.6230000  18.2780000  29.0300000
   7.8360000  20.2600000  29.8200000   7.2980000  20.7030000  28.9810000
   7.5350000  20.7790000  30.7300000   9.3280000  20.4870000  29.6060000
   9.8950000  20.0190000  30.4100000   9.6230000  20.0280000  28.6600000
   9.6950000  21.9640000  29.6000000   9.0500000  22.7420000  30.3370000
  10.6250000  22.3470000  28.8560000   8.1760000  18.0980000  31.0840000
   9.2570000  17.5500000  30.8670000   7.5920000  18.1010000  32.2790000
   6.7040000  18.5660000  32.4040000   8.1890000  17.4260000  33.4230000
   9.0070000  16.8000000  33.0790000   8.8550000  18.4420000  34.3460000
   9.3310000  19.2010000  33.7220000   8.1250000  18.9570000  34.9720000
   9.9240000  17.8210000  35.2090000   9.8050000  16.6700000  35.6310000
  10.9860000  18.5740000  35.4670000  11.0390000  19.5110000  35.0950000
  11.7360000  18.2000000  36.0280000   7.1650000  16.6030000  34.2040000
   6.3830000  17.1520000  34.9820000   7.1760000  15.2760000  33.9980000
   8.1270000  14.5810000  33.1140000   9.0770000  14.4340000  33.6300000
   8.2680000  15.0950000  32.1630000   7.4530000  13.2660000  32.8640000
   8.1780000  12.4810000  32.6440000   6.7580000  13.3730000  32.0300000
   6.6870000  12.9740000  34.1070000   7.3530000  12.4920000  34.8240000
   5.8350000  12.3240000  33.9050000   6.2290000  14.3440000  34.6230000
   5.2190000  14.5610000  34.2710000   6.2840000  14.3880000  36.1460000
   5.2410000  14.3630000  36.8010000   7.5000000  14.4530000  36.6830000
   8.3040000  14.4930000  36.0730000   7.7410000  14.5200000  38.1210000
   7.5100000  13.5450000  38.5510000   9.2210000  14.8150000  38.3770000
   9.8120000  13.9180000  38.1910000   9.5560000  15.6030000  37.7120000
   9.4360000  15.2690000  39.7020000   8.9640000  16.0960000  39.8300000
   6.8810000  15.5610000  38.8380000   6.4820000  15.3600000  39.9840000
   6.5920000  16.6640000  38.1530000   6.9190000  16.7630000  37.2030000
   5.8330000  17.7690000  38.7360000   6.3730000  18.1260000  39.6140000
   5.7360000  18.9220000  37.7430000   5.2200000  19.7630000  38.2080000
   6.7370000  19.2400000  37.4500000   5.1880000  18.6170000  36.8510000
   4.4370000  17.3480000  39.1790000   4.0760000  17.4980000  40.3470000
   3.6680000  16.8190000  38.2300000   4.0660000  16.6730000  37.3150000
   2.2570000  16.4840000  38.4220000   1.7350000  17.4360000  38.4370000
   1.7110000  15.7150000  37.2050000   2.0840000  14.6900000  37.2530000
   0.1870000  15.6670000  37.2390000  -0.1660000  15.2770000  38.1790000
  -0.2230000  16.6690000  37.1020000  -0.1920000  15.0140000  36.4530000
   2.2350000  16.3260000  35.9040000   1.8050000  17.3190000  35.7660000
   3.3190000  16.4200000  35.8950000   1.9450000  15.4850000  34.6870000
   0.8710000  15.4050000  34.5130000   2.3990000  15.9580000  33.8150000
   2.3760000  14.4890000  34.8080000   1.9660000  15.6430000  39.6620000
   2.5300000  14.5580000  39.8300000   1.0690000  16.1400000  40.5300000
   0.4130000  17.4570000  40.4470000  -0.3930000  17.4270000  39.7130000
   1.1190000  18.2580000  40.2280000  -0.1420000  17.6460000  41.8260000
  -1.0180000  18.2860000  41.8180000   0.6280000  18.0950000  42.4550000
  -0.4420000  16.2710000  42.3360000  -1.4420000  15.9850000  42.0080000
  -0.3850000  16.2280000  43.4240000   0.6090000  15.3630000  41.6850000
   1.4410000  15.1900000  42.3690000  -0.0130000  14.0510000  41.2300000
  -0.5250000  13.9790000  40.1100000   0.0310000  13.0210000  42.0650000
   0.4690000  13.0990000  42.9700000  -0.5880000  11.7710000  41.6610000
  -0.3420000  11.6310000  40.6130000  -0.1050000  10.5970000  42.5130000
   0.3130000  10.9470000  43.4590000  -0.9560000   9.9560000  42.7500000
   0.9150000   9.7330000  41.7830000   1.8860000  10.2280000  41.8440000
   1.0010000   8.7680000  42.2830000   0.5510000   9.5150000  40.3140000
  -0.4990000   8.9530000  39.9940000   1.4160000   9.9810000  39.4160000
   1.2830000   9.7810000  38.4230000   2.2370000  10.4890000  39.7300000
  -2.0990000  11.8950000  41.7240000  -2.6410000  12.6570000  42.5320000
  -2.7510000  11.1570000  40.8280000  -2.2140000  10.5520000  40.2210000
  -4.2030000  11.1230000  40.6920000  -4.4500000  10.3530000  39.9640000
  -4.8650000  10.7600000  42.0290000  -4.7630000  11.5580000  42.7620000
  -5.9340000  10.6380000  41.8550000  -4.3750000   9.4720000  42.6150000
  -3.7840000   8.4840000  41.8560000  -3.4510000   7.4710000  42.6350000
  -2.9750000   6.5550000  42.3140000  -3.7970000   7.7680000  43.8740000
  -3.6630000   7.1720000  44.6800000  -4.3760000   9.0150000  43.8900000
  -4.7260000   9.5280000  44.7660000  -4.7530000  12.4470000  40.1630000
  -5.9590000  12.6870000  40.2080000  -3.8760000  13.3020000  39.6490000
  -2.8880000  13.0930000  39.6500000  -4.3220000  14.5520000  39.0400000
  -5.2620000  14.8730000  39.4880000  -3.3090000  15.6600000  39.2760000
  -3.7100000  16.5580000  38.8250000  -3.1180000  15.8050000  40.3360000
  -2.3740000  15.4140000  38.7780000  -4.5580000  14.3480000  37.5490000
  -5.2540000  15.1300000  36.9050000  -3.9750000  13.2780000  37.0170000
  -3.4090000  12.6780000  37.5980000  -4.0720000  12.9480000  35.6020000
  -4.8800000  13.5170000  35.1440000  -2.7690000  13.3140000  34.8820000
  -2.5710000  14.3740000  35.0490000  -1.9400000  12.7600000  35.3260000
  -2.7970000  13.0820000  33.3950000  -3.6310000  13.8280000  32.5760000
  -4.2870000  14.5710000  33.0050000  -3.6430000  13.6240000  31.2080000
  -4.2920000  14.2000000  30.5760000  -2.8110000  12.6720000  30.6440000
  -2.8160000  12.5090000  29.5770000  -1.9720000  11.9280000  31.4460000
  -1.3220000  11.1840000  31.0080000  -1.9620000  12.1380000  32.8130000
  -1.2980000  11.5540000  33.4340000  -4.3820000  11.4640000  35.4530000
  -3.4980000  10.6170000  35.5960000  -5.6430000  11.1500000  35.1700000
  -6.3250000  11.8850000  35.0340000  -6.0910000   9.7590000  35.1530000
  -5.2350000   9.0930000  35.1050000  -6.9150000   9.4690000  36.4170000
  -7.6330000  10.2740000  36.5840000  -7.4770000   8.5410000  36.3000000
  -6.0790000   9.2650000  37.6750000  -5.5650000  10.1920000  37.9310000
  -6.7660000   9.0130000  38.4830000  -5.0550000   8.1590000  37.4430000
  -5.5390000   7.3730000  36.9340000  -4.2420000   8.5170000  36.8180000
  -4.4180000   7.6900000  38.7280000  -3.7140000   6.8850000  38.5140000
  -3.8730000   8.5210000  39.1770000  -5.4490000   7.2090000  39.6750000
  -5.8340000   6.3470000  39.3250000  -5.0230000   7.0270000  40.5750000
  -6.1810000   7.8950000  39.7920000  -6.9100000   9.3720000  33.9180000
  -8.0610000   8.9590000  34.0470000  -6.3140000   9.4760000  32.7180000
  -4.9360000   9.8940000  32.4050000  -4.1970000   9.2820000  32.9220000
  -4.8070000  10.9500000  32.6430000  -4.8460000   9.7030000  30.9100000
  -4.4510000   8.7310000  30.7050000  -4.2220000  10.4550000  30.4350000
  -6.2420000   9.7600000  30.3970000  -6.3460000   9.2450000  29.4410000
  -6.5500000  10.8020000  30.2980000  -7.0510000   9.0990000  31.5080000
  -8.0650000   9.5010000  31.5190000  -7.0990000   7.5870000  31.3090000
  -7.8260000   7.1070000  30.4380000  -6.3290000   6.8510000  32.1060000
  -5.7480000   7.2970000  32.8000000  -6.2570000   5.3990000  31.9710000
  -6.9110000   5.0630000  31.1670000  -4.8340000   4.9640000  31.6120000
  -4.1590000   5.2830000  32.4080000  -4.7730000   3.8820000  31.5690000
  -4.3490000   5.5110000  30.3030000  -4.7590000   4.9430000  29.1060000
  -5.4300000   4.0970000  29.1140000  -4.3190000   5.4490000  27.8950000
  -4.6490000   5.0020000  26.9690000  -3.4590000   6.5300000  27.8740000
  -3.1060000   6.9180000  26.9310000  -3.0440000   7.1060000  29.0630000
  -2.3650000   7.9460000  29.0510000  -3.4880000   6.5970000  30.2680000
  -3.1410000   7.0380000  31.1900000  -6.7170000   4.6680000  33.2300000
  -6.3740000   3.5050000  33.4390000  -7.5010000   5.3450000  34.0610000
  -7.7600000   6.2990000  33.8520000  -8.0650000   4.7050000  35.2330000
  -8.9230000   5.2780000  35.5760000  -8.4160000   3.7050000  34.9740000
  -7.0630000   4.6110000  36.3630000  -6.0950000   5.3670000  36.3960000
  -7.2840000   3.6780000  37.2860000  -8.0690000   3.0470000  37.2030000
  -6.4460000   3.5880000  38.4740000  -5.4590000   3.9940000  38.2480000
  -7.0480000   4.4380000  39.5940000  -7.1610000   5.4700000  39.2850000
  -8.0670000   4.0820000  39.7590000  -6.2910000   4.3010000  40.8980000
  -5.1790000   4.8060000  41.0360000  -6.8930000   3.6170000  41.8660000
  -6.4280000   3.5080000  42.7580000  -7.8020000   3.2050000  41.7190000
  -6.2190000   2.1750000  38.9940000  -7.0940000   1.3100000  38.9020000
  -5.0280000   1.9540000  39.5410000  -4.3440000   2.6960000  39.5690000
  -4.7390000   0.7510000  40.2960000  -3.8420000   0.9160000  40.8930000
  -5.5610000   0.5710000  40.9900000  -4.5260000  -0.4820000  39.4520000
  -4.1180000  -0.3960000  38.2950000  -4.8110000  -1.6400000  40.0390000
  -5.1200000  -1.6510000  41.0040000  -4.6370000  -2.9130000  39.3540000
  -3.6360000  -2.9430000  38.9220000  -4.7640000  -4.0710000  40.3440000
  -4.6680000  -5.0070000  39.7910000  -3.9320000  -4.0120000  41.0470000
  -6.0600000  -4.0740000  41.1330000  -6.1460000  -3.1840000  41.7290000
  -6.9000000  -4.0990000  40.4440000  -6.1790000  -5.2790000  42.0460000
  -5.3950000  -6.2260000  41.9520000  -7.1660000  -5.2530000  42.9340000
  -7.2790000  -6.0230000  43.5720000  -7.7580000  -4.4380000  42.9990000
  -5.6430000  -3.0720000  38.2220000  -5.5480000  -3.9990000  37.4140000
  -6.6070000  -2.1600000  38.1680000  -6.6380000  -1.4210000  38.8560000
  -7.6210000  -2.1820000  37.1270000  -7.4390000  -3.0080000  36.4390000
  -9.0020000  -2.3840000  37.7420000  -9.2300000  -1.5450000  38.4030000
  -9.7290000  -2.3530000  36.9340000  -9.0920000  -3.6660000  38.5430000
  -8.3380000  -4.3380000  38.2010000  -8.8910000  -3.4480000  39.5910000
 -10.4570000  -4.3020000  38.4360000 -10.4270000  -5.2760000  38.9260000
 -11.1730000  -3.6620000  38.9510000 -10.8780000  -4.4690000  37.0470000
 -10.2150000  -4.2110000  36.3320000 -12.0620000  -4.9510000  36.6860000
 -12.9390000  -5.3110000  37.6130000 -12.6520000  -5.3210000  38.5810000
 -13.9140000  -5.3520000  37.4090000 -12.3750000  -5.0650000  35.4020000
 -11.6830000  -4.8970000  34.6870000 -13.2430000  -5.5190000  35.1560000
  -7.5840000  -0.9160000  36.2750000  -8.5890000  -0.5220000  35.6800000
  -6.4150000  -0.2840000  36.2260000  -5.6350000  -0.6290000  36.7680000
  -6.1440000   0.7460000  35.2330000  -7.0100000   1.4030000  35.1450000
  -4.9530000   1.5930000  35.6380000  -4.7290000   2.3480000  34.8880000
  -5.1430000   2.0890000  36.5810000  -4.0740000   0.9560000  35.7510000
  -5.8990000   0.0720000  33.8860000  -5.7580000  -1.1540000  33.8140000
  -5.8430000   0.8730000  32.8250000  -5.7470000   0.3420000  31.4690000
  -4.5470000  -0.5790000  31.2610000  -3.4050000  -0.1960000  31.5100000
  -5.6920000   1.4850000  30.4520000  -5.6780000   0.8990000  28.7490000
  -5.8980000   1.8700000  32.9450000  -6.6580000  -0.2270000  31.2760000
  -6.5540000   2.1370000  30.5980000  -4.7790000   2.0500000  30.6170000
  -4.8260000  -1.7960000  30.8000000  -5.7870000  -2.0590000  30.6380000
  -3.7870000  -2.7780000  30.5080000  -3.0300000  -2.7190000  31.2920000
  -4.3490000  -4.2170000  30.4790000  -5.0680000  -4.3270000  31.2930000
  -5.0520000  -4.4890000  29.1650000  -5.6610000  -5.3890000  29.2470000
  -5.7320000  -3.6720000  28.9220000  -4.3420000  -4.6260000  28.3480000
  -3.2320000  -5.2440000  30.6840000  -2.4300000  -5.1030000  29.9630000
  -2.8140000  -5.1010000  31.6810000  -3.6970000  -6.6730000  30.5650000
  -3.9410000  -6.9230000  29.5330000  -2.9050000  -7.3380000  30.8990000
  -4.5720000  -6.8340000  31.1960000  -3.1250000  -2.4790000  29.1650000
  -2.0120000  -2.9340000  28.8950000  -3.8170000  -1.7110000  28.3260000
  -4.7200000  -1.3550000  28.6000000  -3.3300000  -1.4100000  26.9940000
  -2.5630000  -2.1230000  26.6920000  -4.1650000  -1.5090000  26.3010000
  -2.7680000  -0.0070000  26.8600000  -2.6120000   0.4880000  25.7460000
  -2.4510000   0.6260000  27.9900000  -2.5950000   0.1630000  28.8770000
  -1.9960000   2.0180000  28.0000000  -2.7870000   2.6330000  27.5670000
  -1.7630000   2.4980000  29.4310000  -2.7240000   2.5180000  29.9440000
  -1.1100000   1.7920000  29.9480000  -1.1320000   3.8800000  29.4930000
  -0.1320000   3.8490000  29.0590000  -1.7290000   4.5810000  28.9140000
  -0.9790000   4.4050000  30.9030000  -1.5750000   3.8820000  31.8500000
  -0.1750000   5.4500000  31.0520000  -0.0260000   5.8250000  31.9760000
   0.2790000   5.8570000  30.2490000  -0.7250000   2.2570000  27.1870000
  -0.6360000   3.2330000  26.4390000   0.2630000   1.3830000  27.3410000
   0.1580000   0.6010000  27.9720000   1.5080000   1.5410000  26.6020000
   1.8320000   2.5800000  26.6800000   2.6130000   0.6580000  27.1820000
   2.7490000   0.9870000  28.2140000   2.2880000  -0.3840000  27.1810000
   3.9210000   0.7790000  26.4230000   3.8200000   0.3030000  25.4480000
   4.1480000   1.8360000  26.2780000   5.0930000   0.1440000  27.1380000
   6.2080000   0.1240000  26.6150000   4.8520000  -0.3750000  28.3370000
   3.9210000  -0.3600000  28.7240000   5.6040000  -0.8110000  28.8470000
   1.2950000   1.2190000  25.1300000   1.9090000   1.8320000  24.2590000
   0.4150000   0.2580000  24.8630000  -0.0620000  -0.2050000  25.6220000
   0.0320000  -0.1010000  23.5010000   0.9190000  -0.4200000  22.9630000
  -0.9590000  -1.2720000  23.5250000  -0.5520000  -2.0580000  24.1640000
  -1.9040000  -0.9620000  23.9580000  -1.2470000  -1.8610000  22.1710000
  -2.2590000  -1.3470000  21.3690000  -2.8470000  -0.5100000  21.7160000
  -2.5270000  -1.8910000  20.1180000  -3.3170000  -1.4780000  19.5080000
  -1.7840000  -2.9660000  19.6610000  -1.9920000  -3.3980000  18.6940000
  -0.7730000  -3.4910000  20.4540000  -0.1910000  -4.3280000  20.0980000
  -0.5120000  -2.9400000  21.7030000   0.2700000  -3.3690000  22.3140000
  -0.5760000   1.1000000  22.7660000  -0.2200000   1.3920000  21.6210000
  -1.4880000   1.7960000  23.4370000  -1.7450000   1.5160000  24.3730000
  -2.1910000   2.9220000  22.8400000  -2.6550000   2.5860000  21.9110000
  -3.2930000   3.4090000  23.7650000  -3.8220000   4.2420000  23.3000000
  -4.0020000   2.6000000  23.9460000  -2.8750000   3.7360000  24.7180000
  -1.2410000   4.0660000  22.5100000  -1.2490000   4.5930000  21.3930000
  -0.4210000   4.4390000  23.4880000  -0.4500000   3.9580000  24.3770000
   0.4620000   5.5950000  23.3590000  -0.1130000   6.4230000  22.9500000
   1.0050000   5.9890000  24.7310000   1.4870000   5.1170000  25.1780000
   1.7640000   6.7630000  24.6040000  -0.0740000   6.5100000  25.6860000
  -0.8740000   5.7740000  25.7620000   0.4710000   6.7210000  27.0930000
  -0.3270000   7.0640000  27.7510000   0.8640000   5.7810000  27.4810000
   1.2670000   7.4660000  27.0770000  -0.6800000   7.7920000  25.1420000
  -1.3330000   8.2350000  25.8940000   0.1040000   8.5110000  24.8980000
  -1.2830000   7.5910000  24.2580000   1.6140000   5.3540000  22.3830000
   2.0750000   6.2850000  21.7200000   2.0750000   4.1110000  22.2890000
   1.6800000   3.3720000  22.8540000   3.1460000   3.7850000  21.3560000
   3.9590000   4.4990000  21.4960000   3.6920000   2.3800000  21.6090000
   3.9580000   2.2940000  22.6630000   2.9180000   1.6410000  21.3990000
   4.9150000   2.0580000  20.8070000   6.1360000   2.6530000  21.0440000
   6.3150000   3.3590000  21.7420000   7.0240000   2.1810000  20.1890000
   8.0660000   2.4610000  20.1360000   6.4250000   1.3030000  19.4050000
   5.1030000   1.2100000  19.7700000   4.3590000   0.5730000  19.3180000
   2.6410000   3.9000000  19.9290000   3.3070000   4.4650000  19.0620000
   1.4530000   3.3550000  19.6990000   0.9580000   2.8960000  20.4520000
   0.8180000   3.4060000  18.3920000   1.5010000   2.9850000  17.6530000
  -0.4670000   2.5750000  18.3950000  -0.2390000   1.5420000  18.6260000
  -1.1030000   2.9550000  19.1960000  -1.2420000   2.6350000  17.0960000
  -1.4150000   3.6680000  16.7950000  -0.6620000   2.1490000  16.3110000
  -2.6030000   1.9710000  17.1900000  -2.9800000   1.5190000  18.2930000
  -3.3010000   1.9040000  16.1560000  -4.1240000   1.4410000  16.3160000
   0.5150000   4.8450000  18.0050000   0.8800000   5.2990000  16.9230000
  -0.1530000   5.5550000  18.9070000  -0.4230000   5.1270000  19.7810000
  -0.5620000   6.9280000  18.6650000  -1.2290000   6.9350000  17.8040000
  -1.3270000   7.4720000  19.8680000  -1.6130000   8.5080000  19.6860000
  -2.2310000   6.8830000  20.0240000  -0.7060000   7.4190000  20.7620000
   0.6340000   7.8160000  18.3490000   0.5770000   8.6410000  17.4410000
   1.7210000   7.6480000  19.0930000   1.7390000   6.9550000  19.8280000
   2.8970000   8.4800000  18.8730000   2.5910000   9.5270000  18.8610000
   3.9390000   8.3040000  19.9860000   4.2770000   7.2670000  20.0080000
   5.1330000   9.2180000  19.7480000   5.5340000   9.1100000  18.7450000
   4.8580000  10.2550000  19.9270000   5.9190000   8.9470000  20.4540000
   3.3420000   8.6340000  21.2440000   2.6940000   7.9550000  21.4530000
   3.5190000   8.1560000  17.5240000   3.8610000   9.0590000  16.7620000
   3.6480000   6.8640000  17.2370000   3.3440000   6.1700000  17.9060000
   4.1550000   6.3980000  15.9520000   5.2000000   6.6980000  15.8630000
   4.0850000   4.8700000  15.8800000   4.8920000   4.4620000  16.4880000
   3.1570000   4.5470000  16.3450000   4.1280000   4.2250000  14.4920000
   3.3150000   4.6120000  13.8780000   5.4420000   4.5160000  13.7810000
   6.2710000   4.0890000  14.3450000   5.4240000   4.0740000  12.7840000
   5.5910000   5.5890000  13.6880000   3.9020000   2.7300000  14.6070000
   3.8820000   2.2820000  13.6140000   4.6960000   2.2670000  15.1960000
   2.9430000   2.5590000  15.0920000   3.3870000   7.0150000  14.7840000
   3.9820000   7.6050000  13.8830000   2.0650000   6.8820000  14.8120000
   1.6260000   6.3910000  15.5770000   1.2290000   7.3650000  13.7220000
   1.6200000   6.9690000  12.7820000  -0.2200000   6.8860000  13.8780000
  -0.5620000   7.1080000  14.8910000  -1.1280000   7.6090000  12.8950000
  -2.1020000   7.1200000  12.8690000  -1.2870000   8.6360000  13.2150000
  -0.6990000   7.5910000  11.8930000  -0.2870000   5.3870000  13.6680000
   0.5420000   4.8780000  14.1610000  -1.1990000   5.0220000  14.1170000
  -0.2610000   5.1540000  12.6030000   1.2510000   8.8850000  13.6290000
   1.4690000   9.4440000  12.5500000   1.0350000   9.5500000  14.7600000
   0.8550000   9.0460000  15.6160000   1.1010000  11.0070000  14.8110000
   0.3540000  11.3950000  14.1210000   0.7860000  11.5150000  16.2200000
  -0.1630000  11.0680000  16.5210000   1.5530000  11.1300000  16.8950000
   0.6730000  13.0230000  16.4430000   1.6430000  13.4850000  16.2550000
  -0.3500000  13.6400000  15.4980000  -0.5140000  14.6830000  15.7610000
   0.0200000  13.6050000  14.4740000  -1.2980000  13.1050000  15.5630000
   0.2920000  13.2930000  17.8850000   0.3590000  14.3620000  18.0890000
  -0.7300000  12.9610000  18.0680000   0.9580000  12.7620000  18.5640000
   2.4780000  11.4850000  14.3660000   2.6160000  12.5710000  13.8100000
   3.4930000  10.6600000  14.6060000   3.3280000   9.7800000  15.0730000
   4.8450000  10.9780000  14.1960000   5.1370000  11.9480000  14.5990000
   5.5170000  10.2130000  14.5860000   4.9400000  10.9990000  12.6890000
   5.3950000  11.9780000  12.0950000   4.4880000   9.9120000  12.0740000
   4.1120000   9.1490000  12.6200000   4.5160000   9.7720000  10.6260000
   5.5320000   9.9680000  10.2810000   4.1490000   8.3420000  10.2320000
   3.1440000   8.1140000  10.5910000   4.1350000   8.3010000   9.1440000
   5.1110000   7.2940000  10.7680000   6.1190000   7.5450000  10.4360000
   5.1090000   7.2930000  11.8510000   4.7210000   5.6330000  10.1820000
   4.8360000   5.8700000   8.4100000   5.2090000   4.9540000   7.9490000
   3.8450000   6.0830000   8.0120000   5.5210000   6.6870000   8.1770000
   3.5840000  10.7690000   9.9340000   3.8420000  11.1810000   8.8050000
   2.5060000  11.1540000  10.6110000   2.3260000  10.7790000  11.5310000
   1.5800000  12.1450000  10.0680000   1.2500000  11.8160000   9.0810000
   0.3480000  12.2810000  10.9660000   0.6560000  12.2130000  12.0080000
  -0.0820000  13.2720000  10.8120000  -0.7430000  11.2630000  10.6860000
  -1.2420000  11.5210000   9.7620000  -0.2830000  10.2840000  10.5500000
  -1.9290000  11.1210000  12.0380000  -2.3750000  12.8350000  12.2860000
  -3.1760000  12.8880000  13.0230000  -1.5180000  13.3950000  12.6580000
  -2.7120000  13.2660000  11.3430000   2.2550000  13.5040000   9.9000000
   2.0580000  14.1850000   8.8920000   3.0590000  13.8870000  10.8890000
   3.1900000  13.2840000  11.6900000   3.7170000  15.1930000  10.8940000
   3.0390000  15.9360000  10.4750000   4.0920000  15.5860000  12.3190000
   4.7790000  14.8510000  12.7390000   4.5830000  16.5480000  12.2580000
   2.8740000  15.7280000  13.2220000   2.3820000  14.7820000  13.3550000
   3.2810000  16.2380000  14.5890000   4.0350000  15.5800000  15.0230000
   3.6890000  17.2440000  14.4960000   2.4140000  16.2620000  15.2500000
   1.8330000  16.6360000  12.5750000   1.0710000  16.8930000  13.3100000
   2.3050000  17.5500000  12.2140000   1.3240000  16.1280000  11.7570000
   4.9560000  15.2280000  10.0080000   5.3020000  16.2710000   9.4520000
   5.6240000  14.0870000   9.8860000   5.3140000  13.2650000  10.3860000
   6.7780000  13.9790000   9.0120000   7.4830000  14.7760000   9.2570000
   7.4850000  12.6340000   9.2110000   7.9020000  12.6080000  10.2190000
   6.7470000  11.8350000   9.1330000   8.5960000  12.3760000   8.2090000
   8.2050000  12.4000000   7.1920000   9.3600000  13.1480000   8.3140000
   9.2240000  11.0170000   8.4120000   9.6250000  10.9610000   9.4200000
   8.4670000  10.2410000   8.2940000  10.3480000  10.7780000   7.4200000
   9.9380000  10.8190000   6.4100000  11.0980000  11.5630000   7.5310000
  10.9900000   9.4510000   7.6360000  10.2990000   8.7160000   7.5810000
  11.6960000   9.2870000   6.9320000  11.4300000   9.4290000   8.5460000
   6.3690000  14.1410000   7.5500000   7.0720000  14.7820000   6.7650000
   5.2180000  13.5790000   7.1960000   4.6640000  13.0930000   7.8870000
   4.8590000  13.4140000   5.7920000   5.7510000  13.5310000   5.1750000
   4.3480000  11.9890000   5.5620000   3.6020000  11.7360000   6.3140000
   3.8500000  11.9340000   4.5930000   5.4270000  10.9530000   5.5540000
   5.9850000  10.4700000   4.3890000   5.7070000  10.7260000   3.4500000
   6.9050000   9.5710000   4.6860000   7.4990000   9.0110000   3.9790000
   6.9650000   9.4520000   6.0000000   6.0480000  10.3060000   6.5660000
   5.8590000  10.4240000   7.6200000   3.8240000  14.3990000   5.2380000
   3.5740000  14.4050000   4.0330000   3.2190000  15.2220000   6.0910000
   3.4390000  15.1990000   7.0770000   2.1270000  16.0840000   5.6310000
   2.2480000  16.2680000   4.5660000   0.7790000  15.3790000   5.8290000
   0.6330000  15.2040000   6.8920000  -0.0220000  16.0390000   5.4950000
   0.6530000  14.0730000   5.0990000   0.3100000  14.0430000   3.7580000
   0.1330000  14.9680000   3.2320000   0.1880000  12.8420000   3.0880000
  -0.1030000  12.8310000   2.0480000   0.4050000  11.6530000   3.7580000
   0.2560000  10.7110000   3.2620000   0.7450000  11.6690000   5.0910000
   0.8720000  10.7510000   5.6410000   0.8620000  12.8730000   5.7580000
   1.1270000  12.8710000   6.8050000   2.0440000  17.4550000   6.3010000
   2.4800000  17.6420000   7.4380000   1.4670000  18.4050000   5.5710000
   1.1660000  18.1820000   4.6340000   0.9970000  19.6650000   6.1360000
   1.4430000  19.8390000   7.1160000   1.3390000  20.8500000   5.2270000
   1.0080000  20.6320000   4.2110000   0.7990000  21.7320000   5.5740000
   2.8190000  21.1830000   5.2270000   3.4160000  21.2730000   6.3240000
   3.3870000  21.3430000   4.1240000  -0.5070000  19.5370000   6.3070000
  -1.1360000  18.7380000   5.6130000  -1.0940000  20.3180000   7.2090000
  -0.5520000  20.9750000   7.7510000  -2.5220000  20.1770000   7.4840000
  -2.9850000  19.5670000   6.7130000  -2.7300000  19.4330000   8.8040000
  -2.1960000  19.9520000   9.6020000  -3.7920000  19.4570000   9.0550000
  -2.2950000  18.0010000   8.7530000  -3.1390000  17.0290000   8.2510000
  -4.1210000  17.3010000   7.8920000  -2.7360000  15.7110000   8.1880000
  -3.4050000  14.9600000   7.7950000  -1.4740000  15.3540000   8.6240000
  -1.1520000  14.3240000   8.5620000  -0.6200000  16.3160000   9.1180000
   0.3710000  16.0480000   9.4480000  -1.0300000  17.6320000   9.1790000
  -0.3520000  18.3790000   9.5660000  -3.2730000  21.4990000   7.5070000
  -2.8810000  22.4500000   8.1830000  -4.3700000  21.5280000   6.7600000
  -4.6320000  20.7040000   6.2390000  -5.1940000  22.7180000   6.6060000
  -4.7310000  23.5680000   7.1090000  -5.3080000  23.0780000   5.1190000
  -4.4030000  23.6020000   4.8090000  -5.3650000  22.1430000   4.5590000
  -6.5320000  23.8960000   4.7350000  -7.4360000  23.4400000   5.1190000
  -6.4420000  24.9030000   5.1450000  -6.7260000  23.9680000   3.2260000
  -5.7920000  23.5850000   2.4860000  -7.8130000  24.3960000   2.7800000
  -6.5750000  22.5030000   7.2190000  -7.2620000  21.5310000   6.9020000
  -6.9790000  23.4010000   8.1090000  -6.3810000  24.1730000   8.3650000
  -8.3210000  23.3380000   8.6800000  -8.5290000  22.3060000   8.9670000
  -8.4100000  24.2040000   9.9400000  -7.5920000  23.9280000  10.6080000
  -8.2880000  25.2570000   9.6820000  -9.7080000  24.0080000  10.6960000
 -10.4690000  23.0770000  10.3490000  -9.9660000  24.7840000  11.6420000
  -9.3360000  23.7740000   7.6160000  -9.9150000  24.8580000   7.6940000
  -9.5440000  22.8960000   6.6350000  -9.0600000  22.0110000   6.6800000
 -10.2730000  23.1930000   5.3990000  -9.7050000  23.9510000   4.8580000
 -10.3390000  21.9240000   4.5330000  -9.3280000  21.5610000   4.4190000
 -10.9130000  21.1580000   5.0580000 -10.9340000  22.1340000   3.1720000
 -10.4150000  23.0260000   2.2590000  -9.6270000  23.6440000   2.4330000
 -11.1370000  22.9910000   1.1520000 -10.9880000  23.6230000   0.2860000
 -12.1010000  22.1000000   1.3100000 -12.8230000  21.8720000   0.6370000
 -11.9940000  21.5480000   2.5650000 -12.6400000  20.8170000   3.0290000
 -11.6840000  23.7440000   5.6090000 -12.1440000  24.5900000   4.8410000
 -12.3700000  23.2710000   6.6440000 -11.9540000  22.5930000   7.2660000
 -13.7560000  23.6740000   6.8770000 -14.1520000  24.1910000   6.0030000
 -14.6590000  22.4480000   7.1240000 -15.6770000  22.7780000   7.3320000
 -14.6890000  21.5470000   5.8970000 -15.3990000  20.7350000   6.0630000
 -15.0070000  22.1190000   5.0250000 -13.7040000  21.1190000   5.7100000
 -14.1630000  21.7080000   8.2480000 -14.2630000  22.2480000   9.0350000
 -13.9110000  24.6310000   8.0600000 -15.0310000  25.0110000   8.4060000
 -12.7890000  25.0290000   8.6560000 -11.8940000  24.7230000   8.3000000
 -12.7990000  25.7670000   9.9150000 -11.7820000  25.7540000  10.3000000
 -13.2360000  27.2210000   9.7090000 -12.6980000  27.6310000   8.8540000
 -14.3010000  27.2780000   9.4790000 -12.9150000  28.1020000  10.9100000
 -11.9630000  27.8440000  11.6500000 -13.7160000  29.1430000  11.1110000
 -14.2760000  29.1280000  11.9500000 -13.3940000  30.0480000  10.8070000
 -13.7180000  25.0620000  10.9080000 -14.7280000  25.6160000  11.3490000
 -13.3520000  23.8280000  11.2370000 -12.4830000  23.4620000  10.8690000
 -14.2000000  22.9140000  11.9970000 -15.1170000  22.7620000  11.4250000
 -13.4980000  21.5550000  12.1170000 -13.4220000  21.1110000  11.1240000
 -12.4800000  21.7200000  12.4750000 -14.1780000  20.5660000  13.0360000
 -15.3930000  19.9890000  12.6890000 -15.8650000  20.2560000  11.7540000
 -16.0140000  19.0790000  13.5210000 -16.9740000  18.6680000  13.2490000
 -15.4160000  18.7240000  14.7130000 -16.0340000  17.8160000  15.5410000
 -16.8020000  17.4090000  15.1240000 -14.2050000  19.2740000  15.0770000
 -13.7290000  18.9820000  16.0010000 -13.5920000  20.1890000  14.2400000
 -12.6430000  20.6130000  14.5080000 -14.5860000  23.4140000  13.3890000
 -13.7300000  23.7740000  14.1970000 -15.8870000  23.4270000  13.6590000
 -16.5530000  23.1310000  12.9610000 -16.3860000  23.7200000  14.9970000
 -15.6710000  24.3450000  15.5330000 -17.7140000  24.4780000  14.9310000
 -18.3390000  24.1010000  14.1200000 -18.2100000  24.2370000  15.8690000
 -17.5510000  25.9840000  14.8150000 -16.5490000  26.2760000  15.1350000
 -17.6660000  26.2770000  13.7700000 -18.5460000  26.7420000  15.6710000
 -19.5020000  26.1110000  16.1730000 -18.3640000  27.9660000  15.8480000
 -16.5490000  22.4250000  15.7910000 -17.3600000  21.5660000  15.4290000
 -15.7790000  22.2970000  16.8720000 -15.1530000  23.0460000  17.1260000
 -15.7330000  21.0640000  17.6610000 -15.2730000  20.3120000  17.0350000
 -14.8610000  21.2560000  18.9060000 -13.9030000  21.5920000  18.5510000
 -15.2930000  22.0390000  19.5310000 -14.6370000  20.0000000  19.7530000
 -15.5970000  19.6840000  20.1560000 -14.0750000  18.8660000  18.9070000
 -13.8310000  18.0280000  19.5540000 -14.8090000  18.5190000  18.1820000
 -13.1690000  19.1890000  18.3930000 -13.7170000  20.2890000  20.9310000
 -13.5810000  19.3880000  21.5270000 -12.7450000  20.6230000  20.5720000
 -14.1520000  21.0660000  21.5610000 -17.1190000  20.5710000  18.0710000
 -17.8740000  21.2730000  18.7440000 -17.4390000  19.3560000  17.6400000
 -16.7930000  18.8540000  17.0490000 -18.7210000  18.7190000  17.9240000
 -19.2630000  19.2850000  18.6820000 -19.5850000  18.6730000  16.6580000
 -19.7620000  19.6950000  16.3200000 -19.0460000  18.1490000  15.8660000
 -20.9300000  18.0070000  16.8830000 -21.5010000  18.1580000  17.9830000
 -21.4220000  17.3360000  15.9500000 -18.4720000  17.3150000  18.4620000
 -18.3940000  16.3550000  17.6960000 -18.3320000  17.2000000  19.7800000
 -18.4250000  18.0160000  20.3660000 -17.9730000  15.9290000  20.4090000
 -17.1940000  15.4590000  19.8090000 -17.3970000  16.1580000  21.8190000
 -18.1170000  16.7330000  22.3970000 -17.1460000  14.8310000  22.5290000
 -16.7550000  14.9980000  23.5300000 -18.0720000  14.2720000  22.6620000
 -16.4460000  14.2210000  21.9580000 -16.1100000  16.9790000  21.7350000
 -15.4000000  16.4910000  21.0680000 -16.3510000  17.9550000  21.3190000
 -15.4590000  17.2170000  23.0700000 -14.6820000  17.9700000  22.9550000
 -16.1960000  17.5780000  23.7890000 -14.9910000  16.3080000  23.4460000
 -19.1550000  14.9600000  20.5020000 -20.1720000  15.2630000  21.1290000
 -19.0060000  13.7950000  19.8730000 -18.1540000  13.6070000  19.3660000
 -20.0320000  12.7560000  19.8990000 -20.9960000  13.2060000  20.1410000
 -20.1790000  12.1030000  18.5200000 -20.5050000  12.8660000  17.8130000
 -19.2080000  11.7190000  18.2040000 -21.1920000  10.9650000  18.5080000
 -20.9360000  10.2160000  19.2560000 -22.1780000  11.3690000  18.7430000
 -21.2530000  10.2340000  17.1810000 -21.5120000  10.9420000  16.3960000
 -20.2810000   9.7920000  16.9630000 -22.3110000   9.1360000  17.2320000
 -22.0610000   8.4380000  18.0320000 -23.2730000   9.5940000  17.4700000
 -22.4380000   8.3870000  15.9510000 -21.5690000   7.9230000  15.7350000
 -23.1750000   7.7000000  16.0390000 -22.6710000   9.0360000  15.2100000
 -19.7280000  11.6820000  20.9470000 -18.6100000  11.1730000  21.0240000
 -20.7360000  11.3300000  21.7420000 -21.6400000  11.7700000  21.6410000
 -20.5750000  10.3200000  22.7840000 -19.5170000  10.1390000  22.9480000
 -21.1260000  10.8420000  24.1080000 -22.2140000  10.8940000  24.0590000
 -20.8510000  10.1150000  24.8730000 -20.6060000  12.2120000  24.5020000
 -19.5250000  12.2300000  24.4110000 -21.0120000  12.9610000  23.8200000
 -20.9930000  12.5940000  25.9190000 -21.2190000  11.6820000  26.7420000
 -21.0710000  13.8040000  26.2130000 -21.2540000   8.9890000  22.4430000
 -22.4630000   8.9340000  22.2250000 -20.4600000   7.9250000  22.3830000
 -19.4660000   8.0440000  22.5260000 -20.9800000   6.5610000  22.3580000
 -22.0630000   6.5630000  22.4920000 -20.6550000   5.8150000  21.0380000
 -21.2220000   4.8840000  21.0150000 -21.0340000   6.6580000  19.8250000
 -20.9950000   6.0400000  18.9290000 -22.0440000   7.0490000  19.9400000
 -20.3430000   7.4940000  19.7110000 -19.2570000   5.5070000  20.9840000
 -19.0580000   4.9530000  21.7450000 -20.3540000   5.8370000  23.5460000
 -19.6570000   4.8330000  23.3750000 -20.6210000   6.3770000  24.7390000
 -21.2600000   7.1610000  24.7600000 -19.8750000   6.1150000  25.9800000
 -20.4130000   6.5890000  26.8000000 -19.7410000   4.6180000  26.2720000
 -19.1380000   4.1090000  25.5250000 -19.1560000   4.5400000  27.1900000
 -21.0350000   3.8410000  26.5120000 -21.6550000   3.9080000  25.6180000
 -20.7140000   2.3790000  26.7370000 -21.6400000   1.8040000  26.7770000
 -20.1020000   2.0110000  25.9180000 -20.1680000   2.2530000  27.6730000
 -21.8110000   4.4150000  27.6920000 -22.6890000   3.7980000  27.8870000
 -21.1840000   4.4380000  28.5830000 -22.1530000   5.4240000  27.4670000
 -18.4950000   6.7680000  25.9090000 -18.1460000   7.5910000  26.7550000
 -17.7200000   6.4010000  24.8930000 -18.0660000   5.7220000  24.2310000
 -16.4290000   7.0260000  24.6300000 -15.9270000   7.2120000  25.5790000
 -15.5300000   6.1080000  23.7840000 -14.6340000   6.6470000  23.4740000
 -15.1010000   4.8930000  24.5960000 -15.9650000   4.2810000  24.8560000
 -14.4090000   4.2970000  24.0100000 -14.5980000   5.2170000  25.5080000
 -16.2510000   5.6750000  22.6200000 -17.0180000   5.1690000  22.9030000
 -16.5890000   8.3670000  23.9110000 -17.6740000   8.6990000  23.4330000
 -15.5000000   9.1300000  23.8350000 -14.6320000   8.8060000  24.2370000
 -15.5090000  10.4400000  23.1820000 -16.5360000  10.7400000  22.9680000
 -14.9040000  11.5050000  24.0990000 -13.8580000  11.2670000  24.2500000
 -14.9220000  12.4430000  23.5420000 -15.5410000  11.7870000  25.4590000
 -15.4600000  10.8900000  26.0720000 -14.7780000  12.9030000  26.1490000
 -15.1920000  13.0910000  27.1390000 -13.7260000  12.6440000  26.2380000
 -14.8570000  13.8180000  25.5610000 -17.0110000  12.1470000  25.3190000
 -17.4250000  12.3920000  26.2980000 -17.1410000  12.9960000  24.6530000
 -17.5550000  11.2870000  24.9310000 -14.7440000  10.4410000  21.8610000
 -13.6850000   9.8200000  21.7330000 -15.2900000  11.1520000  20.8840000
 -16.1870000  11.5970000  21.0290000 -14.5960000  11.4130000  19.6330000
 -13.5460000  11.5880000  19.8660000 -14.6830000  10.2180000  18.6770000
 -13.9800000  10.4050000  17.8640000 -14.3370000   9.3160000  19.1830000
 -16.0740000   9.9600000  18.1000000 -16.4490000   9.0230000  18.5150000
 -16.7960000  10.7240000  18.3690000 -16.0300000   9.8340000  16.5770000
 -15.5690000  10.7330000  16.1640000 -15.4290000   8.9670000  16.2980000
 -17.4280000   9.7000000  15.9840000 -17.8830000   8.7740000  16.3380000
 -18.0300000  10.5380000  16.3400000 -17.4250000   9.7210000  14.4880000
 -16.9020000  10.5200000  14.1540000 -16.9970000   8.8790000  14.1280000
 -18.3720000   9.7860000  14.1390000 -15.2090000  12.6620000  19.0160000
 -16.3920000  12.9290000  19.2070000 -14.3960000  13.4600000  18.3080000
 -12.9280000  13.3800000  18.2130000 -12.6050000  12.4320000  17.7820000
 -12.4780000  13.5350000  19.1870000 -12.5740000  14.5240000  17.3040000
 -12.4890000  14.1590000  16.2800000 -11.6300000  14.9820000  17.6010000
 -13.6910000  15.4980000  17.3890000 -13.7680000  16.1120000  16.4910000
 -13.5350000  16.1300000  18.2610000 -14.9320000  14.6360000  17.6180000
 -15.6380000  15.1810000  18.2450000 -15.5890000  14.2460000  16.2990000
 -14.9310000  13.6530000  15.4510000 -16.8670000  14.5620000  16.1260000
 -17.3760000  15.0750000  16.8320000 -17.5710000  14.1450000  14.9160000
 -17.1070000  13.2350000  14.5340000 -19.0230000  13.7960000  15.2380000
 -19.0270000  13.1650000  16.1250000 -19.5670000  14.7160000  15.4570000
 -19.7190000  13.0270000  14.1300000 -19.7350000  13.6190000  13.2170000
 -19.1680000  12.1040000  13.9380000 -21.1510000  12.6920000  14.4710000
 -21.7350000  13.3990000  15.3230000 -21.6890000  11.7250000  13.8890000
 -17.5290000  15.2020000  13.8170000 -17.5310000  16.4050000  14.0930000
 -17.4890000  14.7390000  12.5700000 -17.4910000  13.7430000  12.4060000
 -17.5460000  15.6150000  11.4110000 -17.8670000  15.0250000  10.5520000
 -18.2860000  16.3970000  11.5860000 -16.2190000  16.2640000  11.0740000
 -16.1170000  17.0290000  10.1130000 -15.1990000  15.9500000  11.8650000
 -15.3430000  15.3110000  12.6320000 -13.8930000  16.5760000  11.7230000
 -14.0740000  17.6480000  11.7650000 -12.9810000  16.1710000  12.8760000
 -13.4760000  16.4250000  13.8140000 -12.8370000  15.0930000  12.8650000
 -11.6500000  16.8560000  12.8600000 -11.5120000  18.1260000  12.3170000
 -12.3480000  18.6720000  11.9150000 -10.2850000  18.7550000  12.2980000
 -10.1910000  19.7450000  11.8740000  -9.1760000  18.1150000  12.8240000
  -8.2100000  18.5980000  12.7920000  -9.2990000  16.8440000  13.3630000
  -8.4330000  16.3340000  13.7580000 -10.5300000  16.2230000  13.3800000
 -10.6170000  15.2320000  13.8030000 -13.2440000  16.2180000  10.3980000
 -13.0440000  15.0460000  10.0820000 -12.9100000  17.2480000   9.6300000
 -13.1030000  18.1900000   9.9380000 -12.3270000  17.0630000   8.3130000
 -11.9520000  16.0500000   8.2430000 -13.3860000  17.2840000   7.2120000
 -14.1580000  17.9580000   7.5890000 -12.7770000  17.9480000   5.9810000
 -13.5040000  17.9300000   5.1710000 -12.5460000  18.9950000   6.1790000
 -11.8770000  17.4180000   5.6820000 -14.0480000  15.9690000   6.8470000
 -14.8890000  16.1570000   6.1800000 -13.3480000  15.3110000   6.3370000
 -14.4260000  15.4750000   7.7430000 -11.1400000  17.9980000   8.1050000
 -11.2070000  19.1860000   8.4270000 -10.0470000  17.4470000   7.5870000
 -10.0430000  16.4650000   7.3460000  -8.8900000  18.2560000   7.2360000
  -9.1180000  19.3150000   7.3560000  -7.6720000  17.9460000   8.1250000
  -6.9000000  18.6970000   7.9520000  -8.0520000  18.0190000   9.5860000
  -7.1660000  17.8610000  10.2030000  -8.4540000  19.0080000   9.8100000
  -8.7960000  17.2680000   9.8430000  -7.0920000  16.5840000   7.7810000
  -6.2980000  16.3450000   8.4890000  -7.8570000  15.8130000   7.8660000
  -6.6550000  16.5650000   6.7840000  -8.4890000  18.0450000   5.7840000
  -9.0930000  17.2500000   5.0610000  -7.4670000  18.7770000   5.3650000
  -7.0290000  19.4340000   5.9980000  -6.8630000  18.5910000   4.0580000
  -7.2550000  17.6870000   3.5880000  -7.1370000  19.7900000   3.1410000
  -7.8320000  20.4620000   3.6200000  -6.2100000  20.3510000   3.0120000
  -7.6850000  19.4410000   1.7580000  -7.0360000  18.6980000   1.2920000
  -8.6850000  19.0180000   1.8670000  -7.7400000  20.6840000   0.8660000
  -8.3470000  21.4540000   1.3400000  -6.7330000  21.0710000   0.7580000
  -8.2930000  20.3840000  -0.5250000  -8.0510000  21.2090000  -1.1960000
  -7.7980000  19.4860000  -0.9010000  -9.7700000  20.1630000  -0.5500000
 -10.0390000  19.5770000   0.2280000 -10.2570000  21.0460000  -0.5020000
 -10.0240000  19.6860000  -1.4080000  -5.3720000  18.3990000   4.2910000
  -4.7770000  19.0830000   5.1290000  -4.7690000  17.4560000   3.5750000
  -5.2850000  16.9040000   2.9060000  -3.3440000  17.2140000   3.7270000
  -2.9420000  17.8490000   4.5050000  -3.0940000  15.7870000   4.1700000
  -2.0260000  15.6290000   4.3020000  -3.5910000  15.6030000   5.1220000
  -3.4680000  15.0880000   3.4210000  -2.5910000  17.5110000   2.4350000
  -3.0300000  17.1340000   1.3470000  -1.4700000  18.2140000   2.5680000
  -1.1810000  18.5080000   3.4930000  -0.5340000  18.4060000   1.4660000
  -0.9720000  18.0540000   0.5310000  -0.1690000  19.8850000   1.2920000
  -0.2700000  20.4150000   2.2400000   0.8830000  19.9440000   1.0070000
  -0.9460000  20.6170000   0.2020000  -0.4570000  21.5750000   0.0200000
  -0.9200000  20.0370000  -0.7220000  -2.3890000  20.8810000   0.6060000
  -2.9130000  19.9350000   0.7410000  -2.4000000  21.4280000   1.5500000
  -3.1180000  21.7020000  -0.4510000  -2.5460000  22.6110000  -0.6430000
  -3.1740000  21.1230000  -1.3740000  -4.4930000  22.0810000  -0.0170000
  -5.0360000  21.2470000   0.1500000  -4.4500000  22.6240000   0.8390000
  -4.9370000  22.6410000  -0.7310000   0.7160000  17.5750000   1.7300000
   1.3350000  17.6870000   2.7910000   1.0800000  16.7350000   0.7670000
   0.5420000  16.6820000  -0.0850000   2.2130000  15.8350000   0.9300000
   2.1270000  15.3500000   1.9030000   2.1790000  14.7370000  -0.1370000
   1.2300000  14.2020000  -0.0800000   2.2690000  15.1920000  -1.1240000
   3.2390000  13.8150000   0.0420000   3.0210000  13.2090000   0.7570000
   3.5410000  16.5860000   0.8700000   3.7480000  17.4410000   0.0050000
   4.4350000  16.2610000   1.8000000   4.1980000  15.5690000   2.4980000
   5.7750000  16.8370000   1.8220000   5.7240000  17.8790000   1.5030000
   6.3560000  16.7990000   3.2350000   6.3080000  15.7770000   3.6170000
   7.4080000  17.0830000   3.1830000   5.6850000  17.7360000   4.2200000
   5.6670000  18.7350000   3.7830000   4.6590000  17.4100000   4.3930000
   6.4400000  17.7670000   5.5430000   6.4180000  16.7790000   5.9550000
   7.4730000  18.0820000   5.3880000   5.7670000  18.6800000   6.5490000
   4.7680000  18.2960000   6.7610000   6.3420000  18.6730000   7.4760000
   5.6510000  20.0730000   6.0490000   5.0800000  20.0980000   5.2140000
   5.1880000  20.6480000   6.7420000   6.5630000  20.4540000   5.8500000
   6.7090000  16.1090000   0.8580000   7.8930000  16.4360000   0.7650000
   6.1650000  15.1180000   0.1560000   5.1870000  14.9020000   0.2910000
   6.9080000  14.3340000  -0.8310000   6.2750000  13.5040000  -1.1300000
   7.2680000  15.2010000  -2.0450000   7.7140000  16.1400000  -1.7190000
   8.0210000  14.7140000  -2.6620000   6.0860000  15.5280000  -2.9490000
   5.3170000  16.0460000  -2.3740000   6.4210000  16.1900000  -3.7490000
   5.4930000  14.2630000  -3.5600000   5.0930000  13.5980000  -2.7960000
   4.6560000  14.5610000  -4.1930000   6.5090000  13.5300000  -4.4300000
   6.8580000  14.1930000  -5.2230000   7.3610000  13.2540000  -3.8080000
   5.9570000  12.2770000  -5.0250000   6.7070000  11.7140000  -5.4030000
   5.4750000  11.7480000  -4.3100000   5.3100000  12.5110000  -5.7660000
   8.1710000  13.6880000  -0.2570000   9.2500000  13.7820000  -0.8460000
   8.0240000  13.0380000   0.8940000   7.1150000  13.0030000   1.3330000
   9.0880000  12.2160000   1.4680000  10.0250000  12.4680000   0.9860000
   9.3240000  12.5220000   2.9590000   8.4210000  12.2600000   3.5150000
  10.4720000  11.6800000   3.4990000  10.6100000  11.8520000   4.5640000
  10.2650000  10.6170000   3.3810000  11.3960000  11.9230000   2.9740000
   9.5880000  14.0140000   3.1740000  10.4670000  14.3230000   2.6060000
   8.7340000  14.5860000   2.8140000   9.7810000  14.3860000   4.6260000
   9.7220000  15.4700000   4.7300000   9.0030000  13.9250000   5.2330000
  10.7600000  14.0610000   4.9790000   8.7290000  10.7430000   1.3160000
   7.7240000  10.2880000   1.8620000   9.5490000   9.9920000   0.5660000
  10.7760000  10.4490000  -0.1070000  11.6170000  10.4160000   0.5870000
  10.6740000  11.4310000  -0.5660000  10.9510000   9.4390000  -1.1980000
  11.9970000   9.3450000  -1.4900000  10.3460000   9.7300000  -2.0590000
  10.4210000   8.1630000  -0.6300000  11.2040000   7.6900000  -0.0340000
  10.0900000   7.4820000  -1.4150000   9.2550000   8.5860000   0.2730000
   8.3160000   8.5210000  -0.2780000   9.2030000   7.7110000   1.5200000
   9.7270000   8.0840000   2.5720000   8.5530000   6.5590000   1.3870000
   8.1390000   6.3240000   0.4970000   8.5250000   5.5440000   2.4310000
   8.9970000   5.9200000   3.3380000   7.0840000   5.1380000   2.7600000
   6.5650000   4.9590000   1.8160000   7.1010000   4.1840000   3.2910000
   6.2600000   6.1220000   3.5900000   6.3370000   7.1140000   3.1450000
   4.7900000   5.7370000   3.6020000   4.2450000   6.4000000   4.2650000
   4.3750000   5.8150000   2.5970000   4.6780000   4.7160000   3.9640000
   6.8100000   6.1770000   5.0040000   6.1610000   6.7930000   5.6270000
   6.8610000   5.1770000   5.4370000   7.8020000   6.6250000   5.0050000
   9.3320000   4.3330000   1.9790000   9.5120000   4.1110000   0.7810000
   9.8200000   3.5520000   2.9360000   9.6370000   3.7670000   3.9050000
  10.6070000   2.3760000   2.6150000  11.1780000   2.5300000   1.6990000
  11.3240000   2.2180000   3.4200000   9.7620000   1.1280000   2.4670000
   8.7850000   1.1090000   1.7180000  10.1500000   0.0770000   3.1800000
  10.9500000   0.1490000   3.7900000   9.3960000  -1.1610000   3.1860000
   8.6440000  -1.1880000   2.3970000  10.0870000  -1.9860000   3.0130000
   8.7140000  -1.3670000   4.5250000   8.5180000  -0.4180000   5.2850000
   8.3400000  -2.6110000   4.8080000   8.5110000  -3.3550000   4.1470000
   7.7150000  -2.9660000   6.0790000   7.8530000  -2.1430000   6.7730000
   6.1830000  -3.1680000   5.9340000   6.0170000  -4.0690000   5.3410000
   5.5410000  -3.3730000   7.3000000   4.4990000  -3.6370000   7.1720000
   6.0350000  -4.1480000   7.8720000   5.5950000  -2.4490000   7.8760000
   5.5340000  -1.9890000   5.1970000   5.6790000  -1.0690000   5.7640000
   6.0050000  -1.8650000   4.2230000   4.0510000  -2.1780000   4.9040000
   3.8060000  -1.6970000   3.9560000   3.7990000  -3.2380000   4.8350000
   3.4530000  -1.7070000   5.6810000   8.3500000  -4.2490000   6.6210000
   8.5520000  -5.2070000   5.8690000   8.6870000  -4.2660000   7.9230000
   8.7640000  -3.1000000   8.8240000   7.7790000  -2.8870000   9.2420000
   9.1830000  -2.2220000   8.3330000   9.7000000  -3.5630000   9.9040000
   9.4880000  -3.0690000  10.8530000  10.7290000  -3.3640000   9.6000000
   9.4880000  -5.0440000   9.9940000   8.6070000  -5.2330000  10.5790000
  10.3510000  -5.5550000  10.4210000   9.2230000  -5.4840000   8.5490000
  10.1640000  -5.7520000   8.0670000   8.2480000  -6.6740000   8.5040000
   8.6710000  -7.7860000   8.1750000   6.9750000  -6.4410000   8.8240000
   6.6750000  -5.5040000   9.0480000   5.9510000  -7.4910000   8.7730000
   6.4130000  -8.4530000   8.5550000   5.2360000  -7.6220000  10.1240000
   4.6940000  -8.5680000  10.1390000   5.9660000  -7.6290000  10.9340000
   4.3020000  -6.5720000  10.3210000   3.7920000  -6.4750000   9.5100000
   4.9240000  -7.2250000   7.6680000   4.0990000  -8.0850000   7.3470000
   4.8890000  -6.1370000   7.0970000 -10.2720000   1.6890000  33.2100000
  -6.4620000   5.2020000  24.6780000  -5.6640000  -2.5280000  24.0850000
  -9.4730000  -3.3430000  31.5400000  -8.7590000   1.7760000  29.7370000
 -11.7690000   1.4250000  33.1010000  -6.1120000   6.4900000  24.6060000
  -5.8300000  -3.7640000  24.5300000  -8.2700000  -3.8530000  32.3340000
  -7.7070000   2.8170000  27.3180000 -12.4320000   1.4980000  34.4530000
  -8.6830000  -4.2760000  33.7200000  -8.2480000  -1.0010000  28.8150000
  -9.0610000  -0.2850000  31.0490000  -8.7960000   4.1460000  29.0620000
  -6.5140000   2.2100000  25.2690000  -7.5560000  -2.2780000  26.8190000
 -10.1010000   4.5580000  31.9240000  -8.0270000   6.5900000  27.2360000
  -5.1000000   0.3080000  23.2200000  -8.4690000  -4.8040000  28.6400000
  -9.1600000   1.0750000  30.8620000  -8.1270000   4.0160000  27.8650000
  -6.5780000   0.8430000  25.3700000  -8.0580000  -2.1880000  28.1080000
 -13.6650000   1.2580000  34.5320000  -8.2760000  -5.3860000  34.1590000
  -9.7050000   2.0250000  31.8140000  -7.7320000   5.0950000  26.9750000
  -5.9460000  -0.0720000  24.4550000  -8.4720000  -3.2930000  28.9590000
 -11.7340000   1.7980000  35.4550000  -9.4290000  -3.5060000  34.3790000
  -9.6310000   3.2440000  31.2680000  -7.1090000   4.5430000  25.9200000
  -6.2070000  -1.3100000  24.8560000  -8.9400000  -2.6480000  30.2710000
  -9.0360000   3.1170000  29.9500000  -7.0750000   3.1140000  26.1310000
  -7.0350000  -1.2400000  26.0600000  -8.7620000  -1.2300000  30.0910000
  -7.2360000   0.1030000  26.3370000 -10.1070000   2.4230000  33.8220000
  -9.8220000   0.9100000  33.5730000  -6.3000000   4.6440000  23.9010000
  -5.1880000  -2.3860000  23.2520000 -10.0610000  -4.0780000  31.3040000
  -9.9940000  -2.7230000  32.0740000 -11.9190000   0.5500000  32.7110000
 -12.1720000   2.0740000  32.5040000  -5.7100000   6.8390000  23.7950000
  -6.2600000   7.0760000  25.3650000  -5.4780000  -4.5130000  24.0240000
  -6.3040000  -3.9200000  25.3620000  -7.5960000  -3.1570000  32.3910000
  -7.8650000  -4.6020000  31.8700000  -9.2110000  -0.5990000  31.9110000
  -9.1100000   4.9910000  29.2890000  -6.0440000   2.5560000  24.5450000
  -7.5700000  -3.1190000  26.4230000 -10.8410000   4.3740000  32.5230000
 -10.3890000   5.1780000  31.2360000  -9.3690000   4.9490000  32.4260000
  -8.8490000   6.6740000  27.7450000  -8.1220000   7.0540000  26.3890000
  -7.2950000   6.9820000  27.7380000  -4.4330000  -0.3780000  23.0610000
  -4.6580000   1.1570000  23.3790000  -5.6770000   0.3840000  22.4440000
  -8.3320000  -5.3070000  29.4580000  -7.7540000  -5.0020000  28.0150000
  -9.3200000  -5.0530000  28.2460000  -7.8900000   0.8880000  28.1050000
