default_name
 61574
  42.9081622  59.6676968  80.7555794  43.7101622  59.7246968  81.3685794
  43.0251622  60.3066968  79.9815794  42.0741622  59.9136968  81.2705794
  42.7921622  58.3076968  80.2465794  43.6861622  58.0896968  79.6615794
  42.7211622  57.2816968  81.4025794  41.7731622  57.3736968  81.9325794
  42.8901622  55.8456968  80.8985794  42.6951622  55.1496968  81.7145794
  42.2071622  55.6336968  80.0835794  43.9091622  55.6946968  80.5385794
  43.7641622  57.5656968  82.3415794  43.7511622  56.8896968  83.0245794
  41.5801622  58.1676968  79.3215794  41.6521622  58.5526968  78.1555794
  40.4631622  57.6556968  79.8305794  40.4101622  57.4066968  80.8065794
  39.4251622  57.1356968  78.9425794  39.9171622  56.7576968  78.0525794
  38.7081622  55.9466968  79.6155794  38.8241622  56.0196968  80.6995794
  37.2111622  55.9476968  79.3255794  36.7261622  55.1376968  79.8695794
  36.7231622  56.8476968  79.6985794  37.0121622  55.8066968  78.2625794
  39.3771622  54.6586968  79.1325794  39.3911622  54.6316968  78.0495794
  40.4091622  54.6466968  79.4695794  38.7421622  53.4446968  79.6175794
  39.3431622  52.5856968  79.3205794  38.6801622  53.4656968  80.7065794
  37.7481622  53.3276968  79.2015794  38.3971622  58.1656968  78.4575794
  37.9911622  59.0696968  79.1895794  38.0161622  58.0246968  77.1895794
  38.3881622  57.2636968  76.6375794  37.0351622  58.8936968  76.5525794
  36.3161622  59.2316968  77.2995794  37.7251622  60.1206968  75.9585794
  36.9681622  60.8066968  75.5765794  38.2271622  60.6246968  76.7815794
  38.6921622  59.7986968  74.8415794  39.2761622  58.9316968  75.1205794
  38.1331622  59.5616968  73.9355794  39.6271622  60.9646968  74.5605794
  40.2471622  60.7046968  73.7005794  39.0471622  61.8566968  74.3175794
  40.5321622  61.2406968  75.7575794  39.9301622  61.6066968  76.5885794
  41.0081622  60.3076968  76.0585794  41.5901622  62.2496968  75.4575794
  41.1731622  63.1096968  75.1325794  42.1501622  62.4196968  76.2795794
  42.2031622  61.8826968  74.7375794  36.2641622  58.1236968  75.4795794
  36.6741622  57.0386968  75.0665794  35.1421622  58.6776968  75.0375794
  34.8451622  59.5786968  75.3815794  34.2721622  57.9646968  74.1105794
  34.3741622  56.8926968  74.2835794  32.8081622  58.3126968  74.3775794
  32.1821622  57.5616968  73.8935794  32.6321622  58.2546968  75.4525794
  32.3901622  59.6746968  73.8635794  33.0211622  60.4406968  74.3175794
  32.5141622  59.7176968  72.7805794  30.9421622  59.9906968  74.1765794
  30.3741622  59.3506968  75.0875794  30.3711622  60.8746968  73.5055794
  34.6271622  58.2506968  72.6555794  35.2731622  59.2506968  72.3365794
  34.1861622  57.3586968  71.7775794  33.6091622  56.5946968  72.0955794
  34.5781622  57.3816968  70.3775794  35.5481622  57.8696968  70.3245794
  34.7811622  55.9506968  69.8835794  35.3761622  55.4606968  70.6515794
  33.8161622  55.4446968  69.8255794  35.4911622  55.8216968  68.5565794
  34.9081622  56.3106968  67.7785794  36.4691622  56.2986968  68.6235794
  35.7121622  54.0846968  68.1235794  36.4631622  53.4366968  69.6135794
  36.8971622  52.4596968  69.3995794  37.2511622  54.1086968  69.9535794
  35.7121622  53.3206968  70.3945794  33.5481622  58.0956968  69.5105794
  32.3491622  57.8256968  69.6175794  34.0101622  59.0146968  68.6495794
  35.4051622  59.4626968  68.4975794  36.1081622  58.6316968  68.4475794
  35.6641622  60.1486968  69.3045794  35.3881622  60.1856968  67.1795794
  35.5401622  59.4696968  66.3755794  36.1421622  60.9716968  67.1385794
  34.0061622  60.7286968  67.0325794  33.7381622  60.8886968  65.9885794
  33.9331622  61.6706968  67.5785794  33.1071622  59.6876968  67.7075794
  32.2981622  60.1876968  68.2425794  32.5331622  58.7086968  66.6855794
  33.1711622  57.7066968  66.3575794  31.3321622  58.9946968  66.1985794
  30.8411622  59.8206968  66.5095794  30.6731622  58.1186968  65.2435794
  31.4451622  57.5476968  64.7365794  29.7741622  57.1116968  65.9665794
  30.3721622  56.5756968  66.7025794  29.0061622  57.6696968  66.5065794
  29.0911622  56.1056968  65.0545794  28.4941622  56.6246968  64.3065794
  29.8101622  55.5076968  64.5515794  28.1791622  55.1556968  65.8085794
  27.9831622  55.2896968  67.0175794  27.6131622  54.1886968  65.0955794
  26.9821622  53.5406968  65.5475794  27.8141622  54.1086968  64.1085794
  29.8671622  58.9516968  64.2595794  29.0661622  59.7906968  64.6665794
  30.0821622  58.7246968  62.9555794  30.9921622  57.7046968  62.4045794
  30.8201622  56.7566968  62.8855794  32.0311622  58.0226968  62.4795794
  30.5571622  57.5986968  60.9755794  29.7461622  56.8776968  60.8955794
  31.3821622  57.2936968  60.3325794  30.0531622  58.9576968  60.6175794
  29.3721622  58.9386968  59.7745794  30.9031622  59.5956968  60.3715794
  29.3971622  59.4776968  61.8995794  29.5901622  60.5456968  62.0055794
  27.8921622  59.2276968  61.8805794  27.3941622  58.4046968  62.6515794
  27.1911622  59.9336968  60.9965794  27.6781622  60.5756968  60.3885794
  25.7321622  59.8856968  60.9085794  25.3411622  60.3716968  61.8035794
  25.2591622  60.6706968  59.6815794  25.6551622  61.6866968  59.7255794
  25.6791622  60.1956968  58.7945794  23.7491622  60.7236968  59.5045794
  23.5481622  61.0986968  58.5005794  23.2951622  59.7366968  59.5845794
  23.1151622  61.6836968  60.4905794  23.2811622  61.3306968  61.5085794
  23.5731622  62.6676968  60.3765794  21.6221622  61.8066968  60.2545794
  21.4471622  62.0676968  59.2095794  21.1521622  60.8416968  60.4555794
  21.0121622  62.8506968  61.1285794  21.4101622  63.7546968  60.9145794
  20.0141622  62.8906968  60.9705794  21.1851622  62.6256968  62.0985794
  25.1771622  58.4636968  60.8495794  25.6771622  57.6196968  60.1035794
  24.1471622  58.2056968  61.6495794  23.7791622  58.9276968  62.2495794
  23.4621622  56.9196968  61.6185794  24.0281622  56.2356968  61.0025794
  23.3641622  56.2896968  63.0155794  22.7301622  55.4046968  62.9705794
  24.7411622  55.8846968  63.5065794  24.6541622  55.4396968  64.4985794
  25.1661622  55.1396968  62.8345794  25.4061622  56.7456968  63.5665794
  22.7941622  57.2356968  63.9275794  23.4731622  57.8726968  64.1645794
  22.0641622  57.0676968  61.0315794  21.4201622  58.1076968  61.1745794
  21.6041622  56.0136968  60.3675794  22.1441622  55.1656968  60.3305794
  20.3311622  56.0416968  59.6625794  19.8091622  56.9796968  59.8545794
  20.5541622  55.9396968  58.1505794  20.9891622  54.9626968  57.9465794
  19.5921622  55.9966968  57.6375794  21.4781622  56.9946968  57.5985794
  22.8561622  56.8226968  57.6405794  23.2801622  55.9266968  58.0385794
  23.7081622  57.7896968  57.1365794  24.7641622  57.6766968  57.2315794
  23.1871622  58.9396968  56.5775794  23.8481622  59.6986968  56.1835794
  21.8161622  59.1226968  56.5275794  21.4071622  60.0206968  56.0855794
  20.9701622  58.1536968  57.0345794  19.9011622  58.3096968  56.9945794
  19.4271622  54.9126968  60.1405794  19.1241622  53.9846968  59.3875794
  19.0021622  54.9966968  61.3975794  19.2921622  55.7726968  61.9745794
  18.1221622  53.9966968  61.9725794  17.7951622  54.3316968  62.9565794
  17.2381622  53.8976968  61.3405794  18.7961622  52.6476968  62.1205794
  19.9311622  52.5616968  62.5925794  18.0991622  51.5936968  61.7055794
  17.1741622  51.7186968  61.3195794  18.6051622  50.2316968  61.8495794
  18.9641622  50.0946968  62.8705794  17.4851622  49.2206968  61.5925794
  16.7621622  49.6876968  60.9225794  17.8851622  48.3426968  61.0825794
  16.7881622  48.7346968  62.8565794  17.4171622  47.9956968  63.3555794
  16.6551622  49.5826968  63.5315794  15.4221622  48.1426968  62.5725794
  15.0851622  47.9756968  61.3795794  14.6861622  47.8426968  63.5365794
  19.7841622  49.9576968  60.9205794  20.5651622  49.0346968  61.1555794
  19.9121622  50.7656968  59.8715794  19.2381622  51.5036968  59.7235794
  21.0161622  50.6366968  58.9245794  21.2001622  49.5796968  58.7375794
  20.6761622  51.3316968  57.6035794  20.4251622  52.3736968  57.7955794
  21.5751622  51.3066968  57.0025794  19.5921622  50.6846968  56.7385794
  18.6641622  50.6506968  57.3095794  19.3411622  51.5206968  55.4955794
  18.5131622  51.0946968  54.9275794  19.0791622  52.5406968  55.7795794
  20.2321622  51.5376968  54.8675794  19.9771622  49.2626968  56.3615794
  19.2461622  48.8606968  55.6595794  20.9611622  49.2466968  55.8955794
  19.9781622  48.6186968  57.2405794  22.3081622  51.2106968  59.4965794
  23.3891622  50.9676968  58.9615794  22.1851622  51.9726968  60.5815794
  21.2681622  52.1236968  60.9795794  23.3321622  52.5776968  61.2535794
  22.9661622  53.2256968  62.0475794  24.2251622  51.4966968  61.8685794
  24.6511622  50.8686968  61.0905794  25.0361622  51.9786968  62.4125794
  23.5061622  50.5486968  62.8265794  22.6761622  50.0536968  62.3255794
  24.2111622  49.7786968  63.1425794  23.0041622  51.2876968  64.0565794
  23.8391622  51.7876968  64.5415794  22.2761622  52.0416968  63.7625794
  22.3341622  50.3456968  65.0405794  21.4621622  49.8926968  64.5655794
  23.0391622  49.5576968  65.3085794  21.9171622  51.0696968  66.2735794
  22.7331622  51.4896968  66.7005794  21.2501622  51.7906968  66.0375794
  21.4941622  50.4236968  66.9245794  24.1321622  53.4526968  60.2875794
  23.5981622  54.4026968  59.7195794  25.4061622  53.1206968  60.0895794
  25.8011622  52.3166968  60.5555794  26.2721622  53.9006968  59.2045794
  25.9141622  54.9296968  59.1695794  27.7061622  53.9146968  59.7425794
  28.1271622  52.9156968  59.7835794  28.3261622  54.4816968  59.0535794
  27.8211622  54.5946968  61.0865794  28.3901622  54.0386968  62.0265794
  27.2871622  55.8066968  61.1875794  27.3611622  56.3176968  62.0555794
  26.8351622  56.2266968  60.3905794  26.2981622  53.4046968  57.7545794
  26.9401622  54.0196968  56.9045794  25.6061622  52.3006968  57.4805794
  25.0861622  51.8426968  58.2165794  25.6661622  51.6456968  56.1685794
  26.6821622  51.2666968  56.0635794  24.6981622  50.4556968  56.1285794
  24.7851622  49.9096968  57.0685794  23.6751622  50.8026968  56.0595794
  24.9161622  49.4456968  54.9985794  25.1031622  49.9896968  54.0755794
  26.1271622  48.5736968  55.2915794  26.3951622  48.0526968  54.3805794
  26.9841622  49.1696968  55.6055794  25.8941622  47.8436968  56.0675794
  23.6731622  48.5976968  54.7635794  23.8901622  47.8236968  54.0295794
  23.3601622  48.1226968  55.6945794  22.8661622  49.2246968  54.3855794
  25.3901622  52.5536968  54.9565794  26.0991622  52.4526968  53.9545794
  24.3621622  53.4296968  55.0275794  23.2691622  53.5466968  56.0135794
  23.5991622  54.1836968  56.8305794  22.9361622  52.6036968  56.4025794
  22.1811622  54.2236968  55.2385794  21.4991622  54.7856968  55.8635794
  21.6241622  53.4726968  54.6775794  22.8901622  55.1046968  54.2875794
  23.2001622  56.0156968  54.8025794  22.2641622  55.3566968  53.4315794
  24.1171622  54.2926968  53.8625794  23.8641622  53.6706968  53.0025794
  25.2771622  55.2266968  53.5075794  25.3281622  55.7106968  52.3765794
  26.1871622  55.4706968  54.4455794  26.1131622  55.0316968  55.3525794
  27.3461622  56.3176968  54.1765794  26.9951622  57.2666968  53.7705794
  28.1341622  56.5846968  55.4605794  28.4641622  55.6336968  55.8745794
  29.0441622  57.1186968  55.1805794  27.4391622  57.4086968  56.5455794
  26.5381622  56.8756968  56.8215794  28.3111622  57.4846968  57.7845794
  27.7521622  57.9706968  58.5815794  28.5901622  56.4856968  58.1115794
  29.2151622  58.0536968  57.5685794  27.1001622  58.8036968  56.0415794
  26.7241622  59.4136968  56.8645794  27.9841622  59.2866968  55.6195794
  26.3201622  58.7456968  55.2805794  28.2581622  55.6886968  53.1275794
  28.9561622  56.3936968  52.3995794  28.2461622  54.3606968  53.0545794
  27.6461622  53.8236968  53.6645794  29.0801622  53.6416968  52.0965794
  29.8971622  54.2786968  51.7625794  29.6831622  52.3866968  52.7385794
  28.8701622  51.7736968  53.1225794  30.1981622  51.8146968  51.9655794
  30.6961622  52.5706968  53.8725794  30.1631622  52.9516968  54.7365794
  31.3651622  51.2476968  54.2235794  32.0321622  51.3826968  55.0755794
  30.6051622  50.5106968  54.4865794  31.9391622  50.8786968  53.3725794
  31.7341622  53.6176968  53.5145794  32.5001622  53.6456968  54.2815794
  32.2021622  53.3766968  52.5595794  31.2801622  54.6066968  53.4645794
  28.3081622  53.2556968  50.8345794  28.7111622  52.3496968  50.1025794
  27.1981622  53.9386968  50.5795794  26.8831622  54.6646968  51.2065794
  26.4701622  53.7246968  49.3365794  26.5201622  52.6616968  49.0955794
  25.0041622  54.1276968  49.4745794  24.6461622  53.8056968  50.4525794
  24.8831622  55.2116968  49.4445794  24.1191622  53.4436968  48.4495794
  24.3451622  52.2856968  48.0935794  23.1111622  54.1596968  47.9635794
  23.0071622  55.1376968  48.2245794  22.4731622  53.7176968  47.3075794
  27.1441622  54.5076968  48.2165794  26.5951622  55.4726968  47.6835794
  28.3551622  54.0776968  47.8855794  28.7381622  53.2646968  48.3505794
  29.1821622  54.7176968  46.8755794  28.5501622  55.1126968  46.0795794
  30.0161622  55.8706968  47.4695794  29.3671622  56.7226968  47.6725794
  30.6781622  55.4316968  48.7675794  31.3781622  56.2016968  49.0905794
  29.9351622  55.3126968  49.5545794  31.2271622  54.5006968  48.6335794
  31.0321622  56.2636968  46.5405794  30.6141622  56.5476968  45.7225794
  30.0931622  53.6546968  46.2845794  30.4061622  52.6726968  46.9525794
  30.5071622  53.8296968  45.0335794  30.2371622  54.6446968  44.5005794
  31.4431622  52.8866968  44.4245794  31.2911622  51.8936968  44.8475794
  31.2041622  52.7686968  42.9075794  31.9171622  52.0606968  42.4825794
  30.2021622  52.3686968  42.7445794  31.3141622  54.1016968  42.1765794
  31.1651622  55.1666968  42.8165794  31.5341622  54.0796968  40.9445794
  32.8861622  53.3026968  44.7345794  33.8401622  52.7256968  44.2075794
  33.0291622  54.3016968  45.6045794  32.2061622  54.7476968  45.9795794
  34.3301622  54.7166968  46.1235794  35.0881622  53.9796968  45.8575794
  34.7541622  56.0526968  45.5045794  34.0211622  56.8146968  45.7775794
  35.7201622  56.3406968  45.9215794  34.8751622  56.0306968  43.9865794
  35.6501622  55.3176968  43.7005794  33.9291622  55.7156968  43.5445794
  35.2221622  57.4036968  43.4305794  34.4451622  58.1116968  43.7245794
  36.1761622  57.7336968  43.8445794  35.3191622  57.3796968  41.9135794
  36.1341622  56.7176968  41.6185794  34.3881622  56.9866968  41.5025794
  35.5651622  58.7376968  41.3555794  36.4191622  59.1156968  41.7375794
  35.6751622  58.6666968  40.3505794  34.7901622  59.3486968  41.5625794
  34.3071622  54.8286968  47.6555794  34.3911622  55.9286968  48.1995794
  34.2031622  53.6836968  48.3555794  34.1741622  52.3196968  47.7955794
  35.0091622  52.0996968  47.1385794  33.2411622  52.1796968  47.2505794
  34.1461622  51.4426968  49.0145794  35.1651622  51.1856968  49.3035794
  33.5821622  50.5286968  48.8265794  33.5171622  52.2536968  50.0845794
  33.8001622  51.9026968  51.0775794  32.4321622  52.2146968  49.9735794
  33.9981622  53.6806968  49.8095794  33.2081622  54.3826968  50.0785794
  35.2461622  53.9906968  50.6385794  35.1161622  54.6396968  51.6745794
  36.4201622  53.5326968  50.2115794  36.4801622  53.0016968  49.3505794
  37.6491622  53.8186968  50.9535794  37.5161622  53.5056968  51.9885794
  38.8631622  53.0596968  50.3705794  38.8781622  53.1896968  49.2905794
  40.1711622  53.6356968  50.8945794  40.9901622  53.0976968  50.4325794
  40.3071622  54.6756968  50.5995794  40.2291622  53.5426968  51.9795794
  38.7671622  51.5766968  50.6885794  37.8311622  51.1686968  50.3055794
  39.5901622  51.0456968  50.2125794  38.8101622  51.4196968  51.7665794
  37.9311622  55.3216968  50.9575794  38.3261622  55.8866968  51.9775794
  37.7061622  55.9686968  49.8195794  37.3991622  55.4576968  49.0015794
  37.9051622  57.4096968  49.7115794  38.8881622  57.6566968  50.1125794
  37.8671622  57.8486968  48.2445794  36.8691622  57.6496968  47.8495794
  38.0461622  58.9236968  48.1895794  38.8891622  57.1296968  47.3645794
  39.8881622  57.4496968  47.6635794  38.8511622  56.0576968  47.5265794
  38.7221622  57.4266968  45.8825794  38.8151622  58.5776968  45.4465794
  38.4601622  56.3836968  45.1005794  38.3341622  56.5116968  44.1065794
  38.3321622  55.4696968  45.5145794  36.8511622  58.1496968  50.5345794
  37.0521622  59.2956968  50.9395794  35.7331622  57.4756968  50.7905794
  35.6111622  56.5446968  50.4165794  34.6801622  58.0176968  51.6465794
  34.5981622  59.0896968  51.4605794  33.3431622  57.3916968  51.3065794
  33.2971622  56.3566968  51.6415794  32.5451622  57.9476968  51.7965794
  33.1801622  57.4276968  50.2275794  35.0021622  57.8076968  53.1255794
  34.6251622  58.6086968  53.9705794  35.6941622  56.7246968  53.4525794
  35.9851622  56.0606968  52.7475794  36.1191622  56.5446968  54.8325794
  35.2841622  56.7536968  55.5015794  36.5901622  55.1126968  55.0715794
  37.3701622  54.8776968  54.3455794  37.0221622  55.0266968  56.0695794
  35.4351622  54.1186968  54.9185794  34.8501622  54.3446968  54.0355794
  35.9481622  52.7046968  54.7505794  35.1201622  51.9946968  54.7635794
  36.4611622  52.6156968  53.7945794  36.6531622  52.4796968  55.5405794
  34.4781622  54.2066968  56.0995794  33.7981622  53.3526968  56.1075794
  35.0331622  54.2036968  57.0405794  33.8821622  55.1186968  56.0355794
  37.2091622  57.5656968  55.1345794  37.4211622  57.9546968  56.2795794
  37.8801622  58.0166968  54.0845794  37.7001622  57.6346968  53.1665794
  38.8501622  59.0906968  54.2075794  39.5001622  58.8836968  55.0595794
  39.7321622  59.1536968  52.9545794  39.1221622  59.2586968  52.0685794
  40.3471622  60.0496968  53.0275794  40.6561622  57.9476968  52.7755794
  41.3741622  57.9416968  53.5885794  40.0981622  57.0256968  52.8535794
  41.5811622  57.9546968  51.2185794  42.5481622  59.4486968  51.4105794
  43.2581622  59.5256968  50.5875794  41.8951622  60.3206968  51.3955794
  43.0971622  59.4136968  52.3515794  38.1631622  60.4436968  54.4635794
  38.6711622  61.2416968  55.2495794  37.0171622  60.7006968  53.8215794
  36.6561622  60.0316968  53.1565794  36.2651622  61.9506968  54.0375794
  36.9181622  62.7886968  53.7845794  35.0001622  62.0176968  53.1445794
  34.7761622  63.0736968  52.9905794  35.2061622  61.5776968  52.1675794
  33.7381622  61.3686968  53.7645794  33.7241622  60.3716968  53.5595794
  33.5671622  61.6296968  54.8045794  32.4131622  61.6056968  53.0265794
  32.2171622  62.6786968  53.0245794  32.4781622  61.2676968  51.9905794
  31.2521622  60.9076968  53.7595794  31.5291622  60.7556968  54.8035794
  30.3921622  61.5776968  53.7365794  30.8361622  59.6036968  53.1515794
  31.6171622  58.9616968  53.1645794  30.0681622  59.2056968  53.6735794
  30.5381622  59.7456968  52.1965794  35.8661622  62.0716968  55.5105794
  35.7881622  63.1706968  56.0615794  35.6271622  60.9236968  56.1385794
  35.7421622  60.0586968  55.6315794  35.1011622  60.8606968  57.4915794
  34.4191622  61.6986968  57.6475794  34.3191622  59.5516968  57.7175794
  34.9751622  58.7076968  57.4955794  33.8751622  59.4306968  59.1635794
  33.3371622  58.5016968  59.3325794  34.7331622  59.3936968  59.8345794
  33.2411622  60.2756968  59.4365794  33.1131622  59.4846968  56.7785794
  32.4811622  60.3586968  56.9455794  33.4421622  59.5176968  55.7555794
  32.2601622  58.2416968  56.9525794  31.5501622  58.1786968  56.1275794
  32.8871622  57.3496968  56.9465794  31.6911622  58.2896968  57.8795794
  36.2241622  60.9736968  58.5125794  36.0811622  61.6466968  59.5325794
  37.3451622  60.3196968  58.2245794  37.4111622  59.7786968  57.3745794
  38.5271622  60.4136968  59.0715794  38.2651622  60.0666968  60.0725794
  39.6371622  59.5176968  58.5355794  40.5171622  59.6136968  59.1705794
  39.3141622  58.4786968  58.5145794  39.8941622  59.8316968  57.5235794
  39.0111622  61.8586968  59.1815794  39.4611622  62.2906968  60.2415794
  38.9131622  62.6036968  58.0845794  38.5741622  62.1966968  57.2245794
  39.3061622  64.0096968  58.0855794  40.3121622  64.0966968  58.4975794
  39.3101622  64.5816968  56.6595794  38.3691622  64.3356968  56.1645794
  39.3901622  65.6676968  56.7165794  40.4811622  64.0736968  55.8185794
  41.4461622  63.5266968  56.3925794  40.4451622  64.2326968  54.5785794
  38.3751622  64.8236968  58.9865794  38.7701622  65.8526968  59.5345794
  37.1441622  64.3456968  59.1425794  36.8791622  63.4976968  58.6635794
  36.1471622  65.0066968  59.9805794  36.2561622  66.0866968  59.8725794
  34.7341622  64.6206968  59.5335794  34.6031622  63.5436968  59.5055794
  34.0361622  65.0026968  60.2795794  34.3091622  65.1986968  58.1925794
  34.8441622  64.7026968  57.4095794  33.2431622  65.0166968  58.0455794
  34.5911622  66.6846968  58.0745794  34.2751622  67.4316968  59.0285794
  35.1241622  67.1036968  57.0235794  36.3151622  64.6696968  61.4605794
  36.4421622  65.5586968  62.3015794  36.3231622  63.3776968  61.7655794
  36.2671622  62.6956968  61.0255794  36.2311622  62.9106968  63.1435794
  35.7381622  63.6756968  63.7445794  35.3711622  61.6476968  63.1955794
  35.9341622  60.8326968  62.7375794  35.1981622  61.3876968  64.2395794
  34.0291622  61.7646968  62.4715794  34.1961622  61.9306968  61.4085794
  33.2451622  60.4726968  62.5905794  32.3041622  60.5676968  62.0505794
  33.8201622  59.6566968  62.1555794  33.0401622  60.2496968  63.6375794
  33.2241622  62.9366968  63.0105794  33.1521622  62.8756968  64.0985794
  33.6921622  63.8826968  62.7345794  32.2191622  62.9286968  62.5845794
  37.5821622  62.6366968  63.8045794  37.6541622  62.4846968  65.0235794
  38.6441622  62.5546968  63.0085794  38.5441622  62.6726968  62.0095794
  39.9811622  62.3956968  63.5575794  40.6321622  63.0926968  63.0285794
  39.9991622  62.7066968  64.6025794  40.6221622  61.0196968  63.4465794
  40.3571622  60.2616968  62.5085794  41.4681622  60.7046968  64.4265794
  41.6081622  61.3646968  65.1775794  42.3231622  59.5176968  64.3965794
  42.8511622  59.5046968  63.4455794  43.3741622  59.6096968  65.5025794
  43.9481622  58.6946968  65.4535794  44.0201622  60.4676968  65.3165794
  42.7891622  59.7196968  66.9005794  42.1591622  60.6076968  66.9735794
  42.1861622  58.8396968  67.1025794  43.8541622  59.7876968  67.9765794
  45.0141622  59.4116968  67.6975794  43.5311622  60.2286968  69.0985794
  41.5651622  58.2016968  64.5415794  42.0681622  57.1396968  64.1655794
  40.3641622  58.2666968  65.1025794  39.9781622  59.1556968  65.3875794
  39.5691622  57.0636968  65.2975794  39.7901622  56.4036968  64.4865794
  39.9561622  56.3506968  66.6195794  41.0121622  56.0976968  66.5535794
  39.7611622  57.2746968  67.8145794  40.2951622  56.8676968  68.6705794
  40.1471622  58.2736968  67.6295794  38.7041622  57.3596968  68.0675794
  39.1701622  55.0486968  66.7915794  38.1101622  55.2716968  66.8915794
  39.2891622  54.4276968  65.9065794  39.5611622  54.2636968  68.0105794
  39.0511622  53.3006968  67.9995794  40.6361622  54.0876968  68.0145794
  39.2791622  54.7976968  68.9175794  38.0771622  57.3866968  65.2845794
  37.6561622  58.4436968  65.7605794  37.2851622  56.4886968  64.7015794
  37.6851622  55.6676968  64.2705794  35.8311622  56.6066968  64.7595794
  35.5671622  57.0146968  65.7345794  35.3161622  57.5896968  63.6895794
  34.2421622  57.7196968  63.8255794  35.7721622  58.5656968  63.8535794
  35.5791622  57.1656968  62.2615794  34.5911622  56.5306968  61.5205794
  33.6381622  56.3046968  61.9765794  34.8181622  56.1536968  60.2045794
  34.0421622  55.6566968  59.6405794  36.0351622  56.4176968  59.6135794
  36.2161622  56.1206968  58.5905794  37.0271622  57.0596968  60.3365794
  37.9841622  57.2626968  59.8815794  36.7941622  57.4366968  61.6515794
  37.5751622  57.9416968  62.2015794  35.1421622  55.2456968  64.6255794
  35.7001622  54.2936968  64.0785794  33.9261622  55.1716968  65.1535794
  33.5241622  55.9956968  65.5805794  33.1501622  53.9396968  65.1915794
  33.8341622  53.0906968  65.2405794  32.2731622  53.9156968  66.4525794
  32.8841622  54.1766968  67.3175794  31.5201622  54.6936968  66.3415794
  31.5661622  52.5976968  66.7535794  31.1171622  52.1896968  65.8475794
  32.3121622  51.8866968  67.1115794  30.4591622  52.8106968  67.7865794
  30.6621622  53.6976968  68.3895794  29.5141622  52.9676968  67.2665794
  30.3161622  51.6216968  68.7265794  29.4211622  51.7706968  69.3335794
  30.1841622  50.7106968  68.1405794  31.4981622  51.4866968  69.6245794
  32.3211622  51.2856968  69.0755794  31.6311622  52.3506968  70.1325794
  31.3381622  50.7366968  70.2835794  32.2871622  53.8136968  63.9395794
  31.6211622  54.7656968  63.5395794  32.3021622  52.6406968  63.3175794
  32.8791622  51.8856968  63.6575794  31.4341622  52.3946968  62.1745794
  30.7931622  53.2546968  61.9895794  32.2561622  52.1816968  60.8985794
  32.9961622  52.9806968  60.8295794  32.8001622  51.2426968  60.9675794
  31.4321622  52.1926968  59.6395794  30.8061622  51.0376968  59.1915794
  30.9171622  50.1166968  59.7465794  30.0421622  51.0446968  58.0395794
  29.5411622  50.1416968  57.7155794  29.8991622  52.2116968  57.3175794
  29.2511622  52.2176968  56.4565794  30.5201622  53.3706968  57.7485794
  30.3911622  54.2896968  57.1975794  31.2801622  53.3576968  58.9055794
  31.7561622  54.2706968  59.2345794  30.5361622  51.1866968  62.4405794
  31.0151622  50.0606968  62.5795794  29.2311622  51.4326968  62.5155794
  28.8871622  52.3696968  62.3895794  28.2631622  50.3646968  62.7385794
  28.7771622  49.4516968  63.0365794  27.3051622  50.7256968  63.8785794
  26.8501622  51.6866968  63.6455794  26.5211622  49.9696968  63.9315794
  27.9571622  50.8196968  65.2475794  28.4291622  49.8796968  65.4965794
  28.7411622  51.5766968  65.2155794  26.9711622  51.2036968  66.3375794
  27.2971622  51.0156968  67.5305794  25.8731622  51.6976968  66.0015794
  27.4661622  50.0636968  61.4755794  27.1341622  50.9596968  60.7005794
  27.1751622  48.7866968  61.2785794  27.4931622  48.0966968  61.9455794
  26.2921622  48.3366968  60.2165794  25.6251622  49.1396968  59.9005794
  27.0931622  47.8596968  59.0075794  26.6231622  47.0096968  58.5135794
  27.1681622  48.6816968  58.2945794  28.0981622  47.6036968  59.3055794
  25.4391622  47.2206968  60.8145794  25.6611622  46.8416968  61.9665794
  24.4371622  46.7186968  60.0705794  23.7391622  47.3156968  58.9145794
  24.3401622  47.1926968  58.0135794  23.5071622  48.3656968  59.0865794
  22.4721622  46.5006968  58.8065794  22.1731622  46.3686968  57.7665794
  21.6771622  47.0056968  59.3575794  22.7671622  45.1926968  59.4625794
  23.2631622  44.5466968  58.7365794  21.8591622  44.7136968  59.8285794
  23.7061622  45.5656968  60.6095794  23.1171622  45.8846968  61.4705794
  24.6111622  44.3886968  60.9805794  25.2051622  43.7556968  60.1085794
  24.7191622  44.1216968  62.2795794  24.2391622  44.7046968  62.9485794
  25.4561622  42.9726968  62.7735794  25.2081622  42.8476968  63.8275794
  25.1181622  42.0816968  62.2425794  26.9671622  43.0586968  62.6615794
  27.6401622  42.0356968  62.5235794  27.5021622  44.2746968  62.7215794
  26.9071622  45.0886968  62.7935794  28.9481622  44.4736968  62.7085794
  29.3991622  43.7346968  63.3735794  29.5151622  44.2466968  61.2995794
  30.6011622  44.2026968  61.3945794  29.2281622  43.2436968  60.9845794
  29.1741622  45.2276968  60.1685794  28.2821622  45.7706968  60.4705794
  30.3021622  46.2416968  59.9115794  30.0871622  46.8436968  59.0295794
  30.4251622  46.8986968  60.7715794  31.2401622  45.7176968  59.7255794
  28.7991622  44.4846968  58.8865794  28.5341622  45.1976968  58.1055794
  29.6411622  43.8806968  58.5465794  27.9411622  43.8366968  59.0715794
  29.3231622  45.8646968  63.2115794  28.7231622  46.8646968  62.8145794
  30.2971622  45.9196968  64.1135794  30.7511622  45.0696968  64.4175794
  30.9111622  47.1886968  64.4845794  30.5481622  47.9786968  63.8305794
  30.5991622  47.6156968  65.9485794  30.8461622  48.6736968  66.0465794
  29.1201622  47.4496968  66.2555794  28.8591622  48.0336968  67.1385794
  28.5111622  47.7706968  65.4125794  28.8931622  46.4006968  66.4515794
  31.4481622  46.8446968  66.9445794  31.1271622  47.0836968  67.9585794
  31.3401622  45.7696968  66.7895794  32.4931622  47.1246968  66.8545794
  32.4141622  47.0636968  64.2825794  32.9881622  45.9776968  64.4135794
  33.0431622  48.1776968  63.9335794  32.5221622  49.0316968  63.7915794
  34.4751622  48.1996968  63.6895794  34.9691622  47.5306968  64.3945794
  34.8151622  47.7266968  62.2565794  34.5631622  46.6696968  62.1635794
  34.0251622  48.5166968  61.2215794  34.2861622  48.1586968  60.2255794
  32.9521622  48.3796968  61.3535794  34.2771622  49.5736968  61.2825794
  36.2161622  47.8896968  62.0135794  36.4881622  47.2156968  61.3865794
  34.9881622  49.6106968  63.9285794  34.2341622  50.5726968  63.8025794
  36.2591622  49.7286968  64.3015794  36.8401622  48.9036968  64.3755794
  36.8561622  51.0316968  64.5825794  36.0861622  51.8026968  64.5755794
  37.5131622  51.0626968  65.9685794  38.5841622  50.8866968  65.8605794
  37.4001622  52.0636968  66.3865794  37.0051622  50.0316968  66.9695794
  37.1461622  49.0236968  66.6175794  37.6051622  50.1386968  67.8745794
  35.5561622  50.2676968  67.3395794  35.4201622  51.3246968  67.5615794
  34.9001622  50.0226968  66.5075794  35.1421622  49.5076968  68.5165794
  35.0731622  50.0046968  69.3915794  34.8971622  48.2006968  68.5215794
  35.0441622  47.4826968  67.4155794  35.4151622  47.9086968  66.5805794
  34.8421622  46.4946968  67.4295794  34.5121622  47.6096968  69.6425794
  34.3821622  46.6076968  69.6765794  34.4931622  48.1106968  70.5175794
  37.8941622  51.3666968  63.5215794  38.8301622  50.5996968  63.2985794
  37.7321622  52.5126968  62.8705794  36.9551622  53.1196968  63.0905794
  38.6761622  52.9266968  61.8405794  39.1471622  52.0496968  61.3965794
  37.9481622  53.6546968  60.7065794  37.1901622  54.3136968  61.1305794
  38.6651622  54.2806968  60.1725794  37.3101622  52.7196968  59.7015794
  35.9931622  52.2956968  59.8475794  35.4161622  52.6346968  60.6955794
  35.4101622  51.4336968  58.9275794  34.3841622  51.1176968  59.0485794
  36.1471622  50.9856968  57.8485794  35.5801622  50.1286968  56.9285794
  36.1501622  49.9536968  56.1795794  37.4541622  51.3926968  57.6845794
  38.0351622  51.0436968  56.8435794  38.0281622  52.2536968  58.6075794
  39.0561622  52.5596968  58.4775794  39.7771622  53.8066968  62.4305794
  39.5051622  54.8676968  62.9935794  41.0201622  53.3446968  62.2985794
  41.1791622  52.4766968  61.8115794  42.1841622  54.0586968  62.8095794
  41.8671622  54.7646968  63.5745794  43.1691622  53.0826968  63.4535794
  43.6151622  52.4766968  62.6625794  43.9691622  53.6656968  63.9135794
  42.5861622  52.1346968  64.4985794  41.8331622  51.4956968  64.0345794
  43.6701622  51.2316968  65.0545794  43.2681622  50.6726968  65.8925794
  44.0131622  50.5426968  64.2825794  44.5131622  51.8266968  65.4095794
  41.9201622  52.9216968  65.6045794  41.5491622  52.2426968  66.3725794
  42.6321622  53.6146968  66.0505794  41.0781622  53.4746968  65.2025794
  42.8781622  54.8376968  61.6975794  42.9101622  54.3966968  60.5505794
  43.4481622  55.9866968  62.0475794  43.3711622  56.3146968  62.9995794
  44.0271622  56.8816968  61.0535794  44.2341622  56.3346968  60.1335794
  43.0381622  58.0026968  60.7165794  42.8301622  58.5746968  61.6165794
  43.4711622  58.6776968  59.9835794  41.8141622  57.4836968  60.2275794
  41.1691622  58.1966968  60.2235794  45.3511622  57.4986968  61.4935794
  46.0551622  58.0986968  60.6795794  45.6871622  57.3706968  62.7755794
  45.0951622  56.8626968  63.4155794  46.9081622  57.9896968  63.2965794
  47.2901622  58.7216968  62.5845794  46.6241622  58.7576968  64.5885794
  47.5311622  59.2736968  64.9065794  45.8581622  59.5046968  64.3925794
  46.2051622  57.8896968  65.6255794  45.8451622  58.4276968  66.3395794
  47.9971622  56.9596968  63.5405794  47.7081622  55.8036968  63.8365794
  49.2491622  57.3866968  63.4125794  49.4291622  58.3436968  63.1485794
  50.3881622  56.5126968  63.6725794  50.2711622  55.6066968  63.0775794
  51.6941622  57.1966968  63.2695794  51.5551622  57.5446968  62.2445794
  51.8671622  58.0876968  63.8745794  52.9121622  56.2816968  63.2505794
  52.6291622  55.2796968  62.9255794  53.6071622  56.6966968  62.5275794
  53.6391622  56.2176968  64.5845794  53.3111622  56.9436968  65.5265794
  54.6441622  55.3486968  64.6655794  54.8631622  54.7556968  63.8765794
  55.1751622  55.2726968  65.5155794  50.4201622  56.1216968  65.1435794
  50.8501622  55.0246968  65.4955794  49.9551622  57.0346968  65.9915794
  49.6261622  57.9166968  65.6245794  49.8981622  56.8196968  67.4315794
  50.9211622  56.7366968  67.8005794  49.2291622  58.0146968  68.1105794
  49.7021622  58.9226968  67.7315794  48.1771622  58.0536968  67.8235794
  49.3521622  58.0296968  69.6155794  48.9211622  57.1216968  70.0415794
  50.4091622  58.0706968  69.8825794  48.6551622  59.2416968  70.1965794
  48.9601622  59.3656968  71.2355794  48.9801622  60.1326968  69.6575794
  47.2031622  59.1406968  70.0975794  46.7581622  59.4896968  69.2575794
  46.4301622  58.6176968  71.0445794  46.9741622  58.1466968  72.1595794
  47.9721622  58.1806968  72.2855794  46.3811622  57.7766968  72.8895794
  45.1141622  58.5636968  70.8795794  44.6991622  58.9676968  70.0485794
  44.5141622  58.2806968  71.6415794  49.1531622  55.5376968  67.7815794
  49.7121622  54.6336968  68.4035794  47.8921622  55.4676968  67.3625794
  47.4961622  56.2376968  66.8405794  47.0351622  54.3176968  67.6305794
  47.1291622  54.0516968  68.6825794  45.5771622  54.6696968  67.3305794
  45.5161622  55.0116968  66.2955794  44.9901622  53.7516968  67.3955794
  44.9091622  55.7136968  68.2255794  45.4671622  56.6476968  68.1565794
  43.4861622  55.9796968  67.7665794  43.0501622  56.7776968  68.3685794
  43.4861622  56.2916968  66.7215794  42.8831622  55.0796968  67.8795794
  44.9271622  55.2536968  69.6675794  44.3781622  55.9646968  70.2835794
  44.4441622  54.2836968  69.7575794  45.9481622  55.1996968  70.0415794
  47.4321622  53.0746968  66.8305794  47.3481622  51.9486968  67.3275794
  47.8571622  53.2796968  65.5895794  47.8951622  54.2196968  65.2175794
  48.1821622  52.1686968  64.7035794  47.3711622  51.4406968  64.7515794
  48.3011622  52.6546968  63.2395794  48.9231622  53.5486968  63.2135794
  48.9641622  51.6066968  62.3655794  49.0881622  51.9426968  61.3435794
  49.9791622  51.4046968  62.7045794  48.3871622  50.6806968  62.3755794
  46.9021622  52.9896968  62.7055794  46.3081622  52.0746968  62.7205794
  46.3991622  53.6986968  63.3605794  46.8681622  53.5306968  61.2995794
  45.8421622  53.4716968  60.9355794  47.1251622  54.5866968  61.3215794
  47.4991622  53.0046968  60.5995794  49.4591622  51.4566968  65.1565794
  49.5671622  50.2326968  65.0425794  50.4091622  52.2196968  65.6935794
  50.2691622  53.2176968  65.7595794  51.6131622  51.6436968  66.2965794
  52.1621622  51.1446968  65.5045794  52.4951622  52.7456968  66.8975794
  52.9411622  53.2946968  66.0665794  51.8561622  53.4266968  67.4595794
  53.5971622  52.2506968  67.8295794  53.1681622  52.0006968  68.8005794
  54.0671622  51.3606968  67.4135794  54.6781622  53.3076968  68.0135794
  55.3681622  52.9866968  68.7945794  55.2301622  53.4056968  67.0775794
  54.0791622  54.6596968  68.3785794  53.3101622  54.9366968  67.6555794
  53.6131622  54.5756968  69.3615794  55.1051622  55.7436968  68.4075794
  54.9761622  56.3096968  69.2345794  56.0321622  55.3416968  68.4205794
  55.0021622  56.3296968  67.5895794  51.2551622  50.6116968  67.3665794
  51.8881622  49.5576968  67.4605794  50.2321622  50.9156968  68.1615794
  49.7491622  51.7956968  68.0475794  49.7351622  49.9756968  69.1625794
  50.5791622  49.5806968  69.7305794  48.7821622  50.6666968  70.1415794
  48.0461622  51.2566968  69.6045794  48.2651622  49.8656968  70.6675794
  49.4441622  51.5606968  71.1815794  50.3081622  51.0406968  71.5975794
  49.7921622  52.4746968  70.6975794  48.5071622  51.9076968  72.3275794
  47.5541622  51.1366968  72.5755794  48.7151622  52.9586968  72.9725794
  49.0211622  48.7916968  68.5195794  49.1291622  47.6626968  68.9935794
  48.2891622  49.0546968  67.4415794  48.2231622  50.0016968  67.0955794
  47.4871622  48.0196968  66.7955794  46.8561622  47.5596968  67.5555794
  46.5681622  48.6406968  65.7485794  45.8581622  47.8936968  65.3975794
  46.0121622  49.4686968  66.1905794  47.1511622  49.0066968  64.9025794
  48.3501622  46.9286968  66.1645794  47.8881622  45.8066968  65.9625794
  49.6051622  47.2526968  65.8655794  49.9421622  48.1846968  66.0575794
  50.4951622  46.3056968  65.1975794  49.9021622  45.6276968  64.5825794
  51.4551622  47.0476968  64.2705794  51.9801622  47.7886968  64.8695794
  52.1951622  46.3636968  63.8735794  50.6241622  47.9076968  62.9245794
  49.9621622  48.7686968  63.7055794  51.2791622  45.4486968  66.1875794
  52.1361622  44.6566968  65.7915794  50.9841622  45.6236968  67.4735794
  50.2781622  46.2976968  67.7345794  51.5001622  44.7516968  68.5255794
  52.5781622  44.6416968  68.3995794  51.2441622  45.3716968  69.9035794
  51.6111622  46.3996968  69.8895794  50.1741622  45.4036968  70.1105794
  51.9521622  44.6366968  71.0355794  52.3561622  43.4676968  70.8575794
  52.0841622  45.2376968  72.1235794  50.8301622  43.3856968  68.4155794
  49.6871622  43.2146968  68.8395794  51.5461622  42.4166968  67.8535794
  52.4781622  42.6166968  67.5205794  50.9841622  41.0936968  67.5885794
  50.1251622  41.2236968  66.9345794  52.0051622  40.2316968  66.8465794
  52.8571622  40.0286968  67.4975794  51.5331622  39.2796968  66.5995794
  52.5101622  40.8516968  65.5615794  51.6641622  41.2666968  65.0105794
  53.1931622  41.6706968  65.7955794  53.2091622  39.8466968  64.6725794
  52.5061622  39.0986968  63.9615794  54.4581622  39.8046968  64.6835794
  50.5201622  40.3616968  68.8505794  49.6921622  39.4496968  68.7745794
  51.0511622  40.7586968  70.0045794  51.7071622  41.5296968  70.0195794
  50.6791622  40.1286968  71.2695794  50.6111622  39.0506968  71.1185794
  51.7421622  40.3796968  72.3425794  51.5131622  39.7696968  73.2165794
  52.7241622  40.0946968  71.9625794  51.7611622  41.7416968  72.7345794
  52.1061622  42.2896968  72.0105794  49.3231622  40.6336968  71.7525794
  48.6191622  39.9376968  72.4825794  48.9611622  41.8436968  71.3385794
  49.5721622  42.3776968  70.7355794  47.6781622  42.4226968  71.7165794
  47.3071622  41.9456968  72.6245794  47.8291622  43.9136968  72.0195794
  48.1711622  44.4146968  71.1155794  46.8441622  44.3046968  72.2795794
  48.8101622  44.2336968  73.1325794  48.4771622  43.7696968  74.0615794
  49.7951622  43.8396968  72.8835794  48.9341622  45.7336968  73.3255794
  49.6971622  45.9266968  74.0815794  49.2581622  46.1806968  72.3845794
  47.6761622  46.3346968  73.7545794  46.9341622  45.7136968  74.0415794
  47.4541622  47.6446968  73.7935794  48.4061622  48.4906968  73.4145794
  49.2941622  48.1376968  73.0925794  48.2121622  49.4836968  73.3965794
  46.2801622  48.1116968  74.2035794  45.5051622  47.4906968  74.3435794
  46.1541622  49.1096968  74.1905794  46.6241622  42.2236968  70.6295794
  45.4471622  42.0066968  70.9255794  47.0511622  42.2986968  69.3725794
  48.0291622  42.4516968  69.1755794  46.1181622  42.2536968  68.2505794
  45.1291622  41.9696968  68.6045794  45.9891622  43.6416968  67.6235794
  46.9611622  43.9136968  67.2195794  45.2811622  43.5926968  66.7965794
  45.5351622  44.7016968  68.5905794  44.1861622  44.9026968  68.8375794
  43.4541622  44.2916968  68.3295794  43.7601622  45.8766968  69.7255794
  42.7051622  46.0106968  69.9065794  44.6861622  46.6616968  70.3805794
  44.3551622  47.3926968  71.1035794  46.0371622  46.4726968  70.1455794
  46.7691622  47.0796968  70.6575794  46.4561622  45.4956968  69.2545794
  47.5131622  45.3616968  69.0685794  46.5311622  41.2336968  67.1945794
  47.7141622  41.0646968  66.9015794  45.5371622  40.5556968  66.6335794
  44.5821622  40.7466968  66.9025794  45.7621622  39.5226968  65.6285794
  46.8251622  39.4326968  65.4035794  45.2721622  38.1606968  66.1525794
  45.7811622  37.9466968  67.0935794  44.2111622  38.2376968  66.3545794
  45.5551622  37.0056968  65.1955794  44.9861622  35.9126968  65.4095794
  46.3341622  37.1806968  64.2345794  45.0401622  39.9406968  64.3485794
  44.2051622  40.8486968  64.3775794  45.3701622  39.3076968  63.2255794
  46.0931622  38.6056968  63.2265794  44.7171622  39.6416968  61.9635794
  44.7861622  40.7126968  61.8045794  45.3991622  38.9546968  60.7775794
  46.3531622  39.4476968  60.5875794  45.5901622  37.9106968  61.0275794
  44.5341622  38.9986968  59.5235794  43.6691622  38.3446968  59.6485794
  44.1841622  40.0216968  59.3725794  45.2461622  38.5616968  58.2625794
  46.0911622  39.2246968  58.0735794  45.6001622  37.5646968  58.4145794
  44.2761622  38.6166968  57.0855794  43.4741622  37.8986968  57.2605794
  43.8351622  39.6136968  57.0495794  44.9071622  38.3286968  55.7635794
  45.2751622  37.3876968  55.7625794  44.2161622  38.4046968  55.0285794
  45.6511622  38.9896968  55.5875794  43.2431622  39.2626968  61.9845794
  42.8811622  38.1456968  62.3565794  42.3981622  40.2036968  61.5835794
  42.7481622  41.1086968  61.3035794  40.9781622  39.9336968  61.4335794
  40.7271622  38.9866968  61.9105794  40.1461622  41.0156968  62.1195794
  40.3981622  41.0456968  63.1715794  40.3941622  41.9806968  61.6885794
  38.6571622  40.7696968  61.9935794  38.1901622  39.6386968  62.1255794
  37.9011622  41.8306968  61.7285794  36.8971622  41.7266968  61.6785794
  38.3221622  42.7436968  61.6365794  40.5801622  39.8406968  59.9675794
  41.0821622  40.5856968  59.1235794  39.6831622  38.9086968  59.6695794
  39.3171622  38.3186968  60.4045794  39.0141622  38.8886968  58.3835794
  39.7131622  39.1726968  57.5965794  38.4761622  37.4926968  58.0685794
  37.7081622  37.2396968  58.8005794  37.9881622  37.5436968  57.0925794
  39.4831622  36.3406968  58.0435794  39.8441622  36.1706968  59.0585794
  38.8051622  35.0726968  57.5645794  39.4761622  34.2236968  57.6985794
  37.8871622  34.9036968  58.1235794  38.5511622  35.1586968  56.5075794
  40.6811622  36.6726968  57.1655794  41.3401622  35.8056968  57.1095794
  40.3521622  36.9326968  56.1595794  41.2461622  37.5006968  57.5925794
  37.8781622  39.9006968  58.4155794  36.8721622  39.6826968  59.0935794
  38.0441622  41.0116968  57.7005794  38.8991622  41.1526968  57.1845794
  36.9801622  42.0066968  57.5635794  36.6441622  42.3056968  58.5575794
  37.4811622  43.2506968  56.8325794  36.7051622  44.0166968  56.8435794
  38.3591622  43.6406968  57.3405794  37.8121622  42.9456968  55.4875794
  38.1921622  43.7326968  55.0865794  35.8131622  41.3896968  56.8105794
  35.9351622  40.2896968  56.2715794  34.6831622  42.0846968  56.7645794
  34.6001622  42.9746968  57.2365794  33.5361622  41.5476968  56.0425794
  33.2881622  40.5766968  56.4735794  32.3111622  42.4586968  56.1755794
  32.1991622  42.7656968  57.2165794  32.4941622  43.3506968  55.5745794
  31.0131622  41.7866968  55.7345794  31.1711622  41.2596968  54.7975794
  30.7231622  41.0496968  56.4845794  29.8691622  42.7676968  55.5235794
  30.0671622  43.9836968  55.5205794  28.6651622  42.2386968  55.3365794
  27.8761622  42.8556968  55.2115794  28.5391622  41.2396968  55.3785794
  33.9091622  41.3516968  54.5705794  33.4351622  40.4186968  53.9245794
  34.7781622  42.2226968  54.0585794  35.1321622  42.9726968  54.6335794
  35.2791622  42.1086968  52.6915794  34.4301622  42.1696968  52.0085794
  36.2261622  43.2576968  52.3695794  37.1001622  43.2426968  53.0165794
  36.5571622  43.1666968  51.3345794  35.7061622  44.2086968  52.4865794
  35.9791622  40.7736968  52.4705794  35.5911622  40.0026968  51.5945794
  37.0091622  40.5016968  53.2665794  37.2821622  41.1616968  53.9805794
  37.7521622  39.2526968  53.1425794  38.0911622  39.1646968  52.1165794
  38.9391622  39.2386968  54.1095794  38.6101622  39.6046968  55.0835794
  39.2401622  38.1986968  54.2465794  40.1841622  40.0116968  53.6745794
  39.9421622  41.0756968  53.6585794  41.3091622  39.7936968  54.6705794
  42.1811622  40.3766968  54.3735794  40.9941622  40.1176968  55.6625794
  41.5811622  38.7376968  54.7075794  40.6181622  39.6016968  52.2735794
  41.5281622  40.1466968  52.0175794  40.8531622  38.5476968  52.2415794
  39.8851622  39.8656968  51.5165794  36.8751622  38.0216968  53.3775794
  37.1171622  36.9686968  52.7855794  35.8661622  38.1516968  54.2385794
  35.7191622  39.0336968  54.7095794  34.9261622  37.0566968  54.4965794
  35.4851622  36.1746968  54.8135794  33.9271622  37.4306968  55.6005794
  33.4661622  38.3906968  55.3835794  33.1341622  36.6816968  55.5775794
  34.4941622  37.4526968  57.0235794  35.0831622  36.5476968  57.1775794
  35.1451622  38.2986968  57.1815794  33.3671622  37.4686968  58.0595794
  32.7281622  38.3386968  57.8975794  32.7611622  36.5716968  57.9245794
  33.8761622  37.4736968  59.5045794  33.0621622  37.1546968  60.1575794
  34.6921622  36.7556968  59.5985794  34.3391622  38.8176968  59.9595794
  34.6791622  38.7596968  60.9105794  35.0901622  39.1456968  59.3685794
  33.5781622  39.4816968  59.9305794  34.1771622  36.6926968  53.2165794
  33.8531622  35.5276968  52.9725794  33.9081622  37.7056968  52.4015794
  34.1741622  38.6446968  52.6625794  33.2561622  37.5076968  51.1155794
  32.5181622  36.7116968  51.1915794  32.6081622  38.8106968  50.6395794
  33.3421622  39.6136968  50.6245794  32.2601622  38.6656968  49.6155794
  31.4191622  39.2296968  51.4605794  30.6271622  38.2806968  52.0915794
  30.7971622  37.2196968  52.0205794  29.5321622  38.6586968  52.8495794
  28.9111622  37.9106968  53.3215794  29.2181622  39.9936968  52.9875794
  28.3501622  40.2806968  53.5605794  29.9971622  40.9516968  52.3655794
  29.7461622  41.9966968  52.4635794  31.0941622  40.5676968  51.6065794
  31.7071622  41.3266968  51.1405794  34.2451622  36.9896968  50.0775794
  33.9161622  36.1026968  49.2895794  35.4601622  37.5346968  50.0845794
  35.6731622  38.2716968  50.7415794  36.5001622  37.1136968  49.1425794
  36.1211622  37.2486968  48.1285794  37.7851622  37.9536968  49.3065794
  38.1861622  37.7836968  50.3055794  38.8351622  37.5446968  48.2855794
  39.6771622  38.2356968  48.3305794  39.2151622  36.5456968  48.4975794
  38.4161622  37.5646968  47.2785794  37.4721622  39.4266968  49.1655794
  38.1671622  40.0136968  49.7655794  37.5941622  39.7206968  48.1225794
  36.4541622  39.6906968  49.4195794  36.8161622  35.6356968  49.3455794
  37.2231622  34.9306968  48.4235794  36.5951622  35.1796968  50.5715794
  36.2681622  35.8166968  51.2845794  36.7991622  33.7916968  50.9595794
  37.8511622  33.5466968  50.8055794  36.4751622  33.6426968  52.4475794
  36.9161622  34.4816968  52.9825794  35.3951622  33.6796968  52.5715794
  36.9701622  32.3836968  53.1095794  36.4461622  31.5116968  52.7155794
  38.0251622  32.3146968  52.9415794  36.7931622  32.4926968  54.6145794
  37.5111622  33.2036968  55.0245794  35.7941622  32.8816968  54.8145794
  36.8841622  31.1936968  55.2715794  36.0481622  30.6296968  55.2975794
  37.9941622  30.7026968  55.8065794  39.1171622  31.4066968  55.7675794
  39.1391622  32.2856968  55.2795794  39.9511622  31.0196968  56.1825794
  37.9811622  29.5096968  56.3835794  38.8331622  29.1296968  56.7805794
  37.1491622  28.9416968  56.3695794  35.9561622  32.8316968  50.1065794
  36.2831622  31.6516968  49.9775794  34.8791622  33.3436968  49.5135794
  34.6271622  34.3086968  49.6665794  34.0631622  32.5516968  48.5925794
  33.8751622  31.5726968  49.0355794  32.7131622  33.2286968  48.3295794
  32.8761622  34.2166968  47.8985794  32.1601622  32.6346968  47.6005794
  31.8551622  33.3436968  49.5805794  32.0281622  32.5246968  50.5095794
  30.9991622  34.2576968  49.6285794  34.8031622  32.3336968  47.2705794
  34.4411622  31.4586968  46.4865794  35.8371622  33.1396968  47.0365794
  36.0351622  33.8696968  47.6975794  36.6821622  33.0156968  45.8515794
  36.1561622  32.4496968  45.0835794  37.0401622  34.3976968  45.2575794
  37.6581622  34.9426968  45.9695794  37.8621622  34.2406968  43.9825794
  38.1121622  35.2096968  43.5535794  38.8061622  33.7426968  44.1925794
  37.3051622  33.6606968  43.2455794  35.7801622  35.2256968  45.0045794
  35.1711622  34.7436968  44.2395794  35.1921622  35.2946968  45.9195794
  36.0671622  36.6396968  44.5825794  35.1481622  37.2226968  44.6305794
  36.7961622  37.0876968  45.2575794  36.4411622  36.6736968  43.5595794
  37.9831622  32.2866968  46.1655794  38.3851622  31.3686968  45.4475794
  38.6351622  32.7066968  47.2475794  38.2411622  33.4456968  47.8105794
  39.9791622  32.2356968  47.5685794  40.4121622  31.7506968  46.6925794
  40.8681622  33.4176968  47.9005794  41.8811622  33.0806968  48.1145794
  40.8991622  34.0996968  47.0495794  40.4731622  33.9506968  48.7665794
  40.0291622  31.2156968  48.7095794  41.1111622  30.7516968  49.0715794
  38.8721622  30.8676968  49.2685794  38.0061622  31.2676968  48.9365794
  38.8071622  29.8876968  50.3415794  37.7821622  29.7906968  50.6945794
  39.1031622  28.9216968  49.9435794  39.6991622  30.2186968  51.5245794
  39.7931622  31.3776968  51.9375794  40.3601622  29.2006968  52.0705794
  40.2621622  28.2636968  51.6985794  41.2981622  29.4086968  53.1695794
  41.0691622  30.3456968  53.6755794  41.1771622  28.2896968  54.2195794
  41.8671622  28.4806968  55.0425794  40.1651622  28.3076968  54.6255794
  41.4371622  26.9016968  53.6475794  41.3171622  26.7206968  52.4165794
  41.7601622  25.9866968  54.4365794  42.7291622  29.5086968  52.6345794
  43.6611622  28.9066968  53.1755794  42.8901622  30.2786968  51.5615794
  42.0841622  30.7056968  51.1265794  44.2011622  30.5746968  51.0185794
  44.7621622  29.6496968  50.8895794  44.0861622  31.0496968  50.0455794
  44.9451622  31.5086968  51.9505794  44.3931622  31.9536968  52.9555794
  46.1921622  31.8206968  51.6165794  46.5961622  31.4336968  50.7735794
  47.0521622  32.5906968  52.5125794  47.1941622  31.9916968  53.4115794
  48.4041622  32.8376968  51.8465794  48.2701622  32.8796968  50.7635794
  48.7851622  33.8146968  52.1515794  49.4671622  31.7936968  52.1835794
  49.1031622  30.8016968  51.9095794  50.7291622  32.0606968  51.3955794
  51.5081622  31.3506968  51.6735794  50.4851622  31.9326968  50.3465794
  51.0861622  33.0756968  51.5765794  49.7501622  31.8146968  53.6795794
  49.5241622  32.7886968  54.1165794  49.1481622  31.0506968  54.1765794
  50.7991622  31.5896968  53.8805794  46.4621622  33.9236968  52.9735794
  46.6511622  34.3186968  54.1215794  45.7421622  34.6046968  52.0865794
  45.5991622  34.2266968  51.1595794  45.2321622  35.9436968  52.3795794
  45.9871622  36.4806968  52.9545794  44.9751622  36.7426968  51.0805794
  44.1881622  36.2466968  50.5095794  44.5221622  38.1566968  51.3965794
  44.4681622  38.7416968  50.4765794  43.5251622  38.1546968  51.8385794
  45.2241622  38.6386968  52.0795794  46.2201622  36.7756968  50.2235794
  46.0011622  37.2706968  49.2765794  47.0081622  37.3286968  50.7365794
  46.5881622  35.7776968  50.0085794  43.9431622  35.9136968  53.1985794
  43.7331622  36.7566968  54.0695794  43.0861622  34.9346968  52.9225794
  43.3101622  34.2466968  52.2165794  41.7371622  34.9166968  53.4865794
  41.5211622  35.8746968  53.9585794  40.6841622  34.7106968  52.3745794
  39.7271622  34.3786968  52.7755794  40.4211622  36.0126968  51.6375794
  39.8081622  35.8106968  50.7595794  39.8611622  36.6706968  52.2975794
  41.3551622  36.4776968  51.3215794  41.1601622  33.7346968  51.4405794
  40.6981622  32.9036968  51.6045794  41.5001622  33.8546968  54.5665794
  40.3551622  33.5206968  54.8625794  42.5691622  33.3316968  55.1575794
  43.4971622  33.5886968  54.8525794  42.4311622  32.3696968  56.2515794
  41.4011622  32.0566968  56.3695794  43.2411622  31.1036968  55.9695794
  43.1161622  30.4036968  56.7975794  42.8771622  30.6386968  55.0595794
  44.6171622  31.4046968  55.8195794  44.7761622  31.5796968  54.8865794
  42.8651622  32.9856968  57.5785794  43.7431622  33.8456968  57.6085794
  42.2431622  32.5436968  58.6695794  41.5511622  31.8096968  58.5915794
  42.5881622  33.0236968  60.0095794  42.5591622  34.1136968  60.0055794
  41.5741622  32.5286968  61.0425794  41.5601622  31.4496968  61.0855794
  41.8891622  32.8746968  62.0275794  40.1881622  33.0126968  60.8205794
  39.2041622  32.3896968  60.1095794  39.2971622  31.4346968  59.6245794
  38.0541622  33.1436968  60.1305794  37.1901622  32.8726968  59.6845794
  38.2801622  34.2766968  60.8685794  37.4261622  35.3346968  61.1735794
  36.4041622  35.3466968  60.8265794  37.9311622  36.3506968  61.9405794
  37.2911622  37.1796968  62.2075794  39.2541622  36.3316968  62.4045794
  39.6161622  37.1526968  63.0075794  40.1031622  35.2796968  62.1035794
  41.1151622  35.2666968  62.4785794  39.6151622  34.2276968  61.3195794
  43.9811622  32.5776968  60.4295794  44.4741622  31.5456968  59.9735794
  44.6031622  33.3466968  61.3175794  44.1601622  34.1836968  61.6675794
  45.9061622  32.9776968  61.8525794  46.5891622  32.8456968  61.0105794
  46.4821622  34.0756968  62.7735794  45.8681622  34.1556968  63.6705794
  47.9171622  33.7496968  63.1665794  48.3601622  34.6166968  63.6565794
  47.9401622  32.9226968  63.8755794  48.5071622  33.4976968  62.2845794
  46.4701622  35.3326968  62.0915794  46.4831622  36.0246968  62.7655794
  45.8681622  31.6616968  62.6415794  46.8431622  30.9196968  62.6355794
  44.7731622  31.3446968  63.3225794  43.9671622  31.9516968  63.3485794
  44.8171622  30.1376968  64.1505794  45.8451622  29.8476968  64.3645794
  44.1831622  30.3976968  65.5145794  43.1581622  30.7456968  65.3755794
  44.1501622  29.4616968  66.0735794  44.9381622  31.3996968  66.3355794
  46.3021622  31.3226968  66.5325794  46.6951622  32.3406968  67.2775794
  47.7131622  32.5456968  67.5785794  45.6381622  33.0776968  67.5665794
  45.6461622  33.9456968  68.0825794  44.5271622  32.5136968  66.9845794
  43.5181622  32.8986968  67.0205794  44.1851622  28.9386968  63.4465794
  44.5031622  27.7956968  63.7665794  43.3091622  29.2086968  62.4825794
  43.0621622  30.1696968  62.3005794  42.9861622  28.2456968  61.4285794
  42.6901622  27.3006968  61.8865794  41.8111622  28.7566968  60.5785794
  40.9331622  28.9146968  61.2055794  42.1271622  29.7046968  60.1565794
  41.4471622  27.8566968  59.4085794  42.3311622  27.4896968  58.8905794
  40.9141622  26.9866968  59.7965794  40.5771622  28.5546968  58.3625794
  40.4151622  29.7986968  58.4145794  40.0461622  27.8446968  57.4815794
  44.1981622  28.0036968  60.5285794  44.4071622  28.7756968  59.5815794
  45.0101622  26.9746968  60.8025794  44.8391622  26.3606968  61.5865794
  46.2411622  26.8386968  59.9965794  46.3421622  27.7226968  59.3965794
  47.5081622  26.9326968  60.8635794  48.3561622  26.5916968  60.2795794
  47.6621622  28.0106968  60.9295794  47.5991622  26.2836968  62.2095794
  46.6141622  26.1046968  62.6395794  48.1721622  25.3566968  62.1675794
  48.3351622  27.3696968  63.0405794  49.3581622  27.4226968  62.6735794
  47.8561622  28.3426968  62.9125794  48.3791622  27.1756968  64.4975794
  47.3981622  27.3736968  64.9345794  48.6921622  26.1546968  64.7255794
  49.4081622  28.1546968  65.0025794  50.2971622  27.9706968  64.5605794
  49.1101622  29.0966968  64.7885794  49.5081622  28.0506968  66.0025794
  46.3941622  25.6676968  59.0425794  47.2051622  24.7656968  59.2405794
  45.5831622  25.7666968  57.9925794  44.8271622  26.4326968  58.0695794
  45.9851622  25.4806968  56.6365794  46.6101622  24.5876968  56.6275794
  44.7641622  25.3116968  55.7285794  43.8591622  25.2726968  56.3375794
  44.6601622  26.1746968  55.0695794  44.8001622  24.0446968  54.8645794
  45.8521622  23.4866968  54.5795794  43.6131622  23.5856968  54.4525794
  43.5621622  22.7556968  53.8815794  42.7741622  24.1186968  54.6505794
  46.8331622  26.7216968  56.2495794  47.4721622  26.7436968  55.1915794
  46.8191622  27.7536968  57.1155794  46.1671622  27.7316968  57.8825794
  47.6471622  28.9716968  56.9785794  47.5631622  29.3276968  55.9505794
  47.1681622  30.1056968  57.9105794  46.1411622  30.3616968  57.6565794
  47.1631622  29.7686968  58.9465794  48.0331622  31.3726968  57.8155794
  47.9491622  32.3276968  56.8515794  47.2401622  32.3086968  56.0355794
  48.8841622  33.3086968  57.0635794  49.0311622  34.0886968  56.4405794
  49.6071622  33.0036968  58.1855794  50.6611622  33.6926968  58.7915794
  51.1111622  34.5426968  58.3045794  51.2051622  33.1526968  59.9245794
  52.0301622  33.6556968  60.4055794  50.7331622  31.9506968  60.4565794
  51.1511622  31.5906968  61.3815794  49.6871622  31.2576968  59.8495794
  49.2671622  30.3796968  60.3075794  49.1061622  31.7896968  58.6925794
  49.1231622  28.7216968  57.2725794  49.9631622  28.8056968  56.3755794
  49.4311622  28.4336968  58.5375794  48.6971622  28.3936968  59.2285794
  50.8131622  28.2186968  58.9735794  51.3711622  29.1316968  58.7765794
  50.8761622  27.9106968  60.4715794  50.3301622  28.6646968  61.0335794
  50.4051622  26.9456968  60.6435794  52.2831622  27.7946968  61.0495794
  52.1811622  27.4356968  62.0745794  52.8641622  27.0596968  60.4975794
  53.0011622  29.1386968  61.0525794  53.2151622  29.4446968  60.0285794
  52.3701622  29.8816968  61.5275794  54.3141622  29.0786968  61.8235794
  54.9451622  28.2976968  61.3925794  54.8281622  30.0346968  61.7165794
  54.0991622  28.7966968  63.2725794  54.9951622  28.7706968  63.7405794
  53.5181622  29.5096968  63.6855794  53.6791622  27.8816968  63.3695794
  51.4231622  27.0876968  58.1775794  52.5981622  27.1206968  57.8245794
  50.5951622  26.0916968  57.8985794  49.6531622  26.1126968  58.2595794
  50.9581622  24.9876968  57.0325794  51.7781622  24.4406968  57.5025794
  49.7641622  24.0486968  56.8835794  49.3391622  23.8946968  57.8765794
  49.0031622  24.5296968  56.2675794  50.0771622  22.6926968  56.3195794
  50.5111622  22.7916968  55.3235794  50.7831622  22.1846968  56.9755794
  48.8001622  21.8806968  56.2435794  48.3441622  21.8126968  57.2325794
  48.1051622  22.3806968  55.5675794  49.0581622  20.4846968  55.7295794
  49.6211622  20.5486968  54.7985794  49.6531622  19.9586968  56.4695794
  47.7831622  19.7526968  55.4965794  47.1981622  20.2626968  54.8495794
  47.9891622  18.8426968  55.1075794  47.3001622  19.6276968  56.3765794
  51.4281622  25.4956968  55.6655794  52.5011622  25.1216968  55.1945794
  50.6331622  26.3636968  55.0425794  49.7531622  26.6366968  55.4565794
  50.9701622  26.9026968  53.7245794  51.3311622  26.0866968  53.0985794
  49.7311622  27.4826968  53.0515794  49.9891622  27.8316968  52.0515794
  48.9501622  26.7286968  52.9685794  49.3511622  28.3236968  53.6325794
  52.0651622  27.9606968  53.8105794  52.8821622  28.0886968  52.9025794
  52.0661622  28.7216968  54.9005794  51.4521622  28.4796968  55.6525794
  53.0991622  29.7186968  55.1535794  53.0601622  30.4656968  54.3595794
  52.8391622  30.4166968  56.4925794  51.8471622  30.8706968  56.4705794
  52.8621622  29.6786968  57.2885794  53.8331622  31.4836968  56.8365794
  54.7511622  31.9736968  55.9335794  55.4891622  32.9026968  56.5165794
  56.2531622  33.4986968  56.0395794  55.0771622  33.0386968  57.7635794
  55.4421622  33.7066968  58.4275794  54.0421622  32.1646968  57.9885794
  53.4941622  32.0396968  58.9095794  54.4841622  29.0716968  55.1385794
  55.3801622  29.5296968  54.4315794  54.6481622  27.9966968  55.9035794
  53.8851622  27.6636968  56.4755794  55.9251622  27.2916968  55.9715794
  56.7011622  28.0096968  56.2415794  55.8771622  26.2046968  57.0475794
  55.0761622  25.5026968  56.8085794  56.8191622  25.6556968  57.0455794
  55.6611622  26.7676968  58.4435794  56.0771622  27.8866968  58.7505794
  55.0131622  25.9856968  59.3005794  54.9011622  26.2736968  60.2595794
  54.6971622  25.0736968  59.0075794  56.3141622  26.6736968  54.6335794
  57.4731622  26.7216968  54.2305794  55.3311622  26.0996968  53.9505794
  54.3991622  26.0866968  54.3415794  55.5461622  25.4516968  52.6615794
  56.3471622  24.7186968  52.7755794  54.2671622  24.7066968  52.2115794
  53.4111622  25.3686968  52.3435794  54.3371622  24.3266968  50.7405794
  53.4281622  23.8236968  50.4165794  54.4081622  25.1936968  50.1055794
  55.1921622  23.6736968  50.5605794  54.0611622  23.4506968  53.0585794
  54.9061622  22.7806968  52.8955794  54.0661622  23.6906968  54.1165794
  52.7991622  22.6866968  52.7165794  52.6671622  21.8816968  53.4405794
  51.9471622  23.3596968  52.7985794  52.8521622  22.2336968  51.7285794
  55.9741622  26.4286968  51.5605794  56.8331622  26.1086968  50.7335794
  55.3921622  27.6236968  51.5655794  54.7201622  27.8516968  52.2845794
  55.5581622  28.5536968  50.4495794  55.9011622  28.0146968  49.5695794
  54.2161622  29.2146968  50.1305794  53.8951622  29.8006968  50.9935794
  54.3661622  29.9066968  49.2995794  53.1031622  28.2346968  49.7505794
  52.8721622  27.5826968  50.5855794  51.8341622  28.9776968  49.3775794
  51.0581622  28.2716968  49.0785794  51.4791622  29.5546968  50.2285794
  52.0561622  29.6406968  48.5445794  53.5451622  27.3226968  48.6195794
  52.7801622  26.5646968  48.4635794  53.6601622  27.9006968  47.7025794
  54.4781622  26.8086968  48.8095794  56.6201622  29.6366968  50.6635794
  57.1821622  30.1506968  49.6945794  56.8961622  29.9766968  51.9195794
  56.4111622  29.5216968  52.6805794  57.8711622  31.0236968  52.2485794
  57.4381622  31.9596968  51.9065794  58.0601622  31.0936968  53.7675794
  57.0721622  31.1576968  54.2095794  58.5271622  30.1806968  54.1315794
  58.8211622  32.3026968  54.3155794  59.8471622  32.2816968  53.9465794
  58.1791622  33.6036968  53.8555794  58.6271622  34.4486968  54.3795794
  58.3461622  33.7526968  52.7895794  57.1071622  33.5886968  54.0475794
  58.8831622  32.2426968  55.8325794  57.9021622  32.0656968  56.2615794
  59.5311622  31.4176968  56.1295794  59.3011622  33.1666968  56.2335794
  59.2521622  30.8906968  51.5655794  59.8861622  31.9076968  51.2775794
  59.7351622  29.6506968  51.3255794  59.4201622  28.3846968  52.0205794
  58.5211622  27.9386968  51.5995794  59.3231622  28.5116968  53.0965794
  60.6021622  27.5056968  51.7075794  60.3081622  26.4576968  51.6385794
  61.3551622  27.6276968  52.4885794  61.1411622  27.9996968  50.4325794
  60.5471622  27.5926968  49.6115794  62.1911622  27.7316968  50.3075794
  60.9561622  29.5146968  50.5185794  61.7941622  29.9566968  51.0595794
  60.8701622  30.1096968  49.1135794  61.8901622  30.5646968  48.5955794
  59.6871622  30.1046968  48.5035794  58.8771622  29.7126968  48.9635794
  59.5361622  30.6246968  47.1445794  60.3031622  30.1726968  46.5135794
  58.1721622  30.2446968  46.5735794  57.3871622  30.5696968  47.2545794
  58.0221622  30.7436968  45.6175794  58.0731622  28.8496968  46.3595794
  58.6391622  28.6146968  45.6205794  59.7191622  32.1406968  47.0715794
  59.7401622  32.7166968  45.9835794  59.8491622  32.7826968  48.2275794
  59.7961622  32.2766968  49.1005794  60.1001622  34.2146968  48.2805794
  60.2291622  34.6166968  47.2755794  58.9161622  34.9386968  48.9195794
  58.8061622  34.6026968  49.9525794  59.1171622  36.0106968  48.9425794
  57.6291622  34.7156968  48.1875794  57.2901622  35.5076968  47.1025794
  57.9531622  36.2996968  46.7865794  56.1161622  35.2906968  46.4095794
  55.8651622  35.9116968  45.5625794  55.2701622  34.2706968  46.7925794
  54.3761622  34.0786968  46.2215794  55.6001622  33.4716968  47.8645794
  54.9521622  32.6546968  48.1485794  56.7771622  33.6916968  48.5545794
  57.0241622  33.0536968  49.3925794  61.3911622  34.4996968  49.0275794
  61.6621622  35.6386968  49.4165794  62.1851622  33.4466968  49.2215794
  61.8971622  32.5376968  48.8885794  63.5561622  33.5886968  49.7025794
  63.5491622  34.1516968  50.6365794  64.2051622  32.2276968  49.9585794
  65.1891622  32.3816968  50.4025794  63.5931622  31.6536968  50.6555794
  64.3611622  31.4976968  48.7515794  63.5021622  31.1366968  48.5065794
  64.3361622  34.3586968  48.6555794  63.9641622  34.3646968  47.4825794
  65.4161622  35.0106968  49.0585794  65.7051622  34.9936968  50.0255794
  66.1091622  35.8746968  48.1185794  65.3621622  36.4546968  47.5745794
  67.0211622  36.8496968  48.8595794  67.2261622  36.4776968  49.8645794
  67.9741622  36.9406968  48.3355794  66.3921622  38.2326968  48.9295794
  66.3181622  38.6036968  47.9075794  65.3871622  38.1456968  49.3415794
  67.1641622  39.2196968  49.7725794  67.6511622  38.8886968  50.8525794
  67.2801622  40.4486968  49.2805794  67.7521622  41.1456968  49.8375794
  66.7501622  40.6956968  48.4585794  66.8781622  35.0726968  47.0715794
  67.1831622  35.5846968  45.9965794  67.1551622  33.8066968  47.3615794
  66.8851622  33.4116968  48.2505794  67.7401622  32.9356968  46.3545794
  68.5841622  33.4546968  45.8995794  68.2381622  31.6286968  46.9745794
  68.7531622  31.8456968  47.9115794  67.3731622  31.0076968  47.2135794
  69.1851622  30.8276968  46.0805794  69.1651622  29.7946968  46.4305794
  68.8401622  30.8196968  45.0475794  70.6261622  31.3296968  46.1325794
  70.8891622  32.5296968  46.0145794  71.5651622  30.4056968  46.3095794
  71.3101622  29.4346968  46.4045794  72.5331622  30.6876968  46.3425794
  66.7021622  32.6576968  45.2725794  67.0461622  32.4026968  44.1165794
  65.4281622  32.7226968  45.6565794  65.2001622  32.9226968  46.6195794
  64.3261622  32.4836968  44.7305794  64.5861622  31.6396968  44.0895794
  63.0611622  32.1116968  45.4915794  62.3161622  31.7496968  44.7825794
  63.2731622  31.3126968  46.2015794  62.6371622  32.9686968  46.0085794
  64.0751622  33.7006968  43.8475794  63.7161622  33.5616968  42.6765794
  64.2691622  34.8876968  44.4185794  64.5311622  34.9276968  45.3935794
  64.1081622  36.1456968  43.6905794  63.0951622  36.1856968  43.2935794
  64.3331622  37.3416968  44.6195794  65.2611622  37.1856968  45.1685794
  64.4861622  38.2446968  44.0325794  63.2281622  37.5706968  45.6305794
  63.1301622  36.6946968  46.2715794  63.4991622  38.4226968  46.2525794
  61.6381622  37.9056968  44.8505794  62.0981622  39.1806968  43.6805794
  61.2081622  39.5816968  43.2015794  62.6251622  39.9856968  44.1925794
  62.7281622  38.7626968  42.8965794  65.0591622  36.2446968  42.5055794
  64.7101622  36.8056968  41.4665794  66.2631622  35.7066968  42.6725794
  66.4971622  35.2646968  43.5515794  67.2601622  35.7096968  41.6085794
  67.3161622  36.7286968  41.2295794  68.6311622  35.2886968  42.1595794
  68.8881622  35.9576968  42.9825794  68.5591622  34.2796968  42.5685794
  69.7761622  35.3186968  41.1425794  70.7131622  35.1286968  41.6675794
  69.6321622  34.5246968  40.4095794  69.8561622  36.6626968  40.4245794
  68.9261622  36.8676968  39.8995794  70.0271622  37.4586968  41.1505794
  70.9531622  36.6896968  39.3605794  70.8511622  35.8056968  38.7285794
  70.8101622  37.5736968  38.7375794  72.3271622  36.7316968  39.9435794
  72.4671622  35.9256968  40.5385794  73.0131622  36.7136968  39.2015794
  72.4401622  37.5706968  40.4945794  66.8151622  34.7906968  40.4645794
  67.2091622  34.9746968  39.3145794  65.9741622  33.8136968  40.7855794
  65.6691622  33.6956968  41.7415794  65.4621622  32.8976968  39.7855794
  66.2691622  32.5676968  39.1295794  65.0551622  32.0266968  40.2995794
  64.3581622  33.5196968  38.9575794  64.2411622  33.2556968  37.7595794
  63.5531622  34.3606968  39.5995794  63.6821622  34.5196968  40.5895794
  62.4021622  34.9796968  38.9455794  61.8801622  34.2246968  38.3595794
  61.4431622  35.5606968  39.9885794  61.9721622  36.3166968  40.5705794
  60.6201622  36.0566968  39.4735794  60.8531622  34.5356968  40.9265794
  60.5171622  33.2636968  40.4775794  60.6431622  32.9846968  39.4435794
  59.9801622  32.3206968  41.3365794  59.7281622  31.3336968  40.9775794
  59.7761622  32.6466968  42.6635794  59.2421622  31.7146968  43.5255794
  59.2461622  32.0266968  44.4385794  60.1041622  33.9026968  43.1305794
  59.9391622  34.1856968  44.1555794  60.6391622  34.8366968  42.2635794
  60.8711622  35.8236968  42.6335794  62.8061622  36.0756968  37.9685794
  62.1541622  36.2656968  36.9445794  63.8821622  36.7856968  38.2975794
  64.3711622  36.5686968  39.1545794  64.3211622  37.9626968  37.5475794
  63.6251622  38.7736968  37.7635794  65.7031622  38.3996968  38.0295794
  65.6231622  38.6036968  39.0945794  66.4151622  37.5846968  37.8935794
  66.2231622  39.6166968  37.3325794  65.9441622  40.8966968  37.7615794
  66.5231622  41.7666968  36.9525794  66.4161622  42.8306968  36.9765794
  67.1621622  41.0956968  36.0095794  67.6341622  41.5126968  35.2165794
  66.9891622  39.7506968  36.2225794  67.3701622  38.9496968  35.6065794
  64.3641622  37.7776968  36.0275794  63.8511622  38.6146968  35.2855794
  64.9821622  36.6936968  35.5675794  65.3691622  36.0196968  36.2125794
  65.0961622  36.4366968  34.1365794  65.6411622  37.2586968  33.6695794
  65.8631622  35.1516968  33.8855794  65.5491622  34.7166968  32.9395794
  66.9361622  35.3446968  33.9025794  65.6231622  34.4216968  34.6605794
  63.7191622  36.3676968  33.4915794  63.5201622  36.8386968  32.3745794
  62.7681622  35.7846968  34.2155794  62.9871622  35.4206968  35.1315794
  61.3921622  35.6656968  33.7435794  61.3931622  35.3836968  32.6915794
  60.6611622  34.5726968  34.5275794  60.8331622  34.6986968  35.5925794
  59.5901622  34.6636968  34.3625794  61.0861622  33.1636968  34.1335794
  60.8181622  33.0066968  33.0895794  62.1691622  33.0726968  34.2245794
  60.3211622  31.8596968  35.1185794  60.5991622  30.4286968  34.0675794
  60.1751622  29.5426968  34.5405794  60.1171622  30.5856968  33.1025794
  61.6701622  30.2846968  33.9215794  60.6431622  36.9986968  33.8445794
  59.7531622  37.2806968  33.0445794  61.0141622  37.8156968  34.8255794
  61.7451622  37.5326968  35.4635794  60.4531622  39.1536968  34.9595794
  59.3641622  39.0866968  34.9345794  60.8711622  39.7836968  36.2885794
  61.9351622  39.6586968  36.4675794  60.6711622  40.8486968  36.2065794
  60.0891622  39.3136968  37.4895794  59.0281622  39.3846968  37.2725794
  60.3461622  38.2786968  37.7145794  60.4561622  40.3546968  38.9085794
  59.4231622  39.6006968  40.1615794  59.5401622  40.1396968  41.1005794
  58.3801622  39.6286968  39.8485794  59.7271622  38.5636968  40.3045794
  60.8891622  40.0586968  33.8105794  60.1791622  40.9886968  33.4335794
  62.0741622  39.7966968  33.2745794  62.6381622  39.0396968  33.6365794
  62.5911622  40.5856968  32.1655794  62.3481622  41.6336968  32.3325794
  64.1311622  40.4736968  32.0685794  64.3991622  39.4216968  31.9565794
  64.6591622  41.2376968  30.8605794  65.7461622  41.2056968  30.8745794
  64.3351622  40.7656968  29.9325794  64.3241622  42.2756968  30.8845794
  64.7751622  40.9956968  33.3425794  64.8031622  42.0856968  33.3245794
  64.2371622  40.7176968  34.2415794  65.7971622  40.6226968  33.4135794
  61.9321622  40.1356968  30.8595794  61.7121622  40.9416968  29.9565794
  61.5951622  38.8516968  30.7795794  61.8091622  38.2256968  31.5435794
  60.9131622  38.2976968  29.6135794  61.5721622  38.4106968  28.7595794
  60.6351622  36.8036968  29.8175794  61.5371622  36.3226968  30.2005794
  59.8471622  36.6706968  30.5575794  60.2131622  36.1046968  28.5345794
  59.1171622  36.4066968  28.0215794  60.9701622  35.2386968  28.0445794
  59.6051622  39.0336968  29.3215794  59.2751622  39.2956968  28.1655794
  58.8701622  39.3616968  30.3805794  59.1931622  39.1016968  31.3015794
  57.5911622  40.0576968  30.2675794  57.0821622  39.7156968  29.3655794
  56.6821622  39.7636968  31.4865794  57.1191622  40.2206968  32.3765794
  55.2951622  40.3376968  31.2815794  54.6581622  40.0756968  32.1225794
  55.3371622  41.4126968  31.1975794  54.8441622  39.9876968  30.3555794
  56.5901622  38.2586968  31.7285794  57.5641622  37.8376968  31.9605794
  55.9631622  38.0956968  32.6045794  55.9831622  37.4946968  30.5785794
  56.6871622  37.4586968  29.7465794  55.7981622  36.4696968  30.9005794
  55.0481622  37.9096968  30.2225794  57.8061622  41.5626968  30.1435794
  57.0771622  42.2516968  29.4295794  58.8161622  42.0646968  30.8465794
  59.3791622  41.4546968  31.4235794  59.1661622  43.4786968  30.7945794
  58.2911622  44.0626968  31.0805794  60.2801622  43.7816968  31.7795794
  60.4731622  44.8536968  31.7875794  59.9781622  43.4856968  32.7835794
  61.1901622  43.2586968  31.4915794  59.5711622  43.8906968  29.3785794
  59.2011622  44.9646968  28.9105794  60.3291622  43.0326968  28.7005794
  60.6091622  42.1606968  29.1245794  60.7001622  43.2796968  27.3135794
  61.2091622  44.2426968  27.2515794  61.6551622  42.1866968  26.7725794
  61.3071622  41.2146968  27.1255794  61.6501622  42.1556968  25.2465794
  62.4431622  41.4926968  24.8995794  60.7081622  41.7576968  24.8685794
  61.8231622  43.1496968  24.8365794  63.0651622  42.4096968  27.2995794
  63.5561622  43.2116968  26.7435794  63.0451622  42.6816968  28.3565794
  63.6481622  41.4946968  27.1895794  59.4481622  43.3616968  26.4395794
  59.3301622  44.2536968  25.5975794  58.5051622  42.4476968  26.6605794
  58.6491622  41.7386968  27.3665794  57.2571622  42.4316968  25.8975794
  57.5061622  42.2816968  24.8455794  56.3641622  41.2756968  26.3465794
  56.1151622  41.3416968  27.4015794  55.4331622  41.3956968  25.7915794
  56.9481622  39.9126968  26.0405794  57.4801622  39.9306968  25.0885794
  57.6281622  39.6706968  26.8105794  55.8981622  38.8326968  25.9785794
  54.7531622  39.0796968  25.5935794  56.2761622  37.6246968  26.3685794
  57.2211622  37.4746968  26.6995794  55.6121622  36.8676968  26.3365794
  56.4871622  43.7396968  26.0055794  55.9471622  44.2236968  25.0085794
  56.4381622  44.3066968  27.2085794  56.8871622  43.8546968  27.9935794
  55.7711622  45.5896968  27.4245794  54.7351622  45.4916968  27.0985794
  55.7831622  45.9656968  28.9055794  55.1871622  45.2436968  29.4645794
  56.8071622  45.8966968  29.2705794  55.2701622  47.3826968  29.1805794
  55.7981622  48.1096968  28.5665794  53.7811622  47.4836968  28.8675794
  53.4011622  48.4436968  29.2025794  53.6081622  47.3956968  27.7955794
  53.2321622  46.7006968  29.3915794  55.5521622  47.8006968  30.6155794
  55.3551622  48.8656968  30.7275794  54.9271622  47.2336968  31.3035794
  56.6021622  47.6276968  30.8495794  56.4231622  46.7056968  26.6225794
  55.7471622  47.4456968  25.9085794  57.7391622  46.8236968  26.7585794
  58.2361622  46.1816968  27.3625794  58.5041622  47.8486968  26.0645794
  58.1361622  48.8266968  26.3785794  60.0031622  47.7526968  26.4055794
  60.3491622  46.7316968  26.2415794  60.8141622  48.6706968  25.5115794
  61.8291622  48.7766968  25.8965794  60.8841622  48.2626968  24.5025794
  60.3721622  49.6576968  25.4565794  60.2311622  48.0966968  27.8635794
  61.2981622  48.0866968  28.0815794  59.8471622  49.0956968  28.0745794
  59.7331622  47.3856968  28.5185794  58.3131622  47.7396968  24.5555794
  58.0901622  48.7406968  23.8735794  58.3801622  46.5166968  24.0445794
  58.5591622  45.7256968  24.6475794  58.2361622  46.2886968  22.6165794
  58.9191622  46.9566968  22.0905794  58.6101622  44.8516968  22.2675794
  58.1721622  44.1676968  22.9955794  58.1901622  44.6166968  21.2905794
  60.1041622  44.6356968  22.1765794  60.5201622  45.3736968  21.4885794
  60.5591622  44.7986968  23.1535794  60.4661622  43.2516968  21.6955794
  59.7971622  42.2706968  22.0235794  61.5311622  43.1616968  20.9115794
  61.8421622  42.2506968  20.6115794  62.0661622  43.9886968  20.6935794
  56.8291622  46.6006968  22.1155794  56.6551622  46.9516968  20.9515794
  55.8271622  46.4826968  22.9825794  56.0021622  46.1886968  23.9345794
  54.4641622  46.8346968  22.5875794  54.2131622  46.3096968  21.6645794
  53.4421622  46.4386968  23.6555794  53.3141622  45.3556968  23.6185794
  53.7951622  46.7006968  24.6485794  52.0981622  47.1266968  23.4395794
  52.1451622  48.1616968  23.7435794  51.8601622  47.0906968  22.3745794
  50.9551622  46.4656968  24.1715794  50.9041622  45.4186968  23.8695794
  51.1171622  46.5286968  25.2485794  49.6421622  47.1456968  23.8075794
  49.6501622  48.1616968  24.2055794  49.5621622  47.1996968  22.7205794
  48.4571622  46.4206968  24.3425794  48.5121622  46.3956968  25.3545794
  47.6141622  46.9146968  24.0825794  48.4271622  45.4806968  23.9745794
  54.3571622  48.3246968  22.3165794  53.7511622  48.7566968  21.3355794
  54.9561622  49.1036968  23.2065794  55.4371622  48.6856968  23.9915794
  54.9231622  50.5516968  23.1125794  53.9111622  50.8786968  22.8915794
  55.3201622  51.1546968  24.4545794  56.2791622  50.7456968  24.7725794
  55.4231622  52.2346968  24.3435794  54.3001622  50.8886968  25.5215794
  53.0891622  50.2756968  25.3635794  52.6711622  49.9586968  24.4275794
  52.4251622  50.2236968  26.5645794  51.4901622  49.8506968  26.6825794
  53.2041622  50.8086968  27.5285794  52.9631622  50.9956968  28.8865794
  52.0391622  50.6706968  29.3415794  53.9341622  51.6216968  29.6175794
  53.7671622  51.8136968  30.6675794  55.1241622  52.0616968  29.0305794
  55.8281622  52.6266968  29.6155794  55.3661622  51.8786968  27.6825794
  56.2771622  52.2446968  27.2285794  54.3941622  51.2396968  26.9065794
  55.8241622  51.0706968  21.9905794  55.4751622  52.0246968  21.2955794
  56.9681622  50.4236968  21.7955794  57.2281622  49.6536968  22.3955794
  57.8771622  50.8176968  20.7275794  57.9771622  51.9036968  20.7405794
  59.2591622  50.2006968  20.9505794  59.1641622  49.2826968  21.5295794
  59.7131622  49.9366968  19.9945794  60.2131622  51.1656968  21.6455794
  60.3151622  52.0396968  21.0075794  59.8011622  51.4746968  22.5815794
  61.5831622  50.5786968  21.9005794  61.7371622  49.3436968  21.7885794
  62.5081622  51.3576968  22.2145794  57.3481622  50.4466968  19.3465794
  57.9791622  50.7496968  18.3335794  56.1801622  49.8116968  19.3115794
  55.7031622  49.5966968  20.1755794  55.5721622  49.3696968  18.0625794
  56.2071622  49.6296968  17.2165794  55.3941622  47.8546968  18.0735794
  54.9541622  47.5576968  19.0265794  54.7001622  47.5536968  17.2885794
  56.6791622  47.0916968  17.8305794  56.9831622  47.2276968  16.7915794
  57.4681622  47.4826968  18.4745794  56.5021622  45.6176968  18.1195794
  56.2001622  45.4806968  19.1545794  55.7041622  45.2316968  17.4835794
  57.7191622  44.8676968  17.8365794  58.3771622  45.2826968  17.1945794
  58.0061622  43.6856968  18.3685794  57.1661622  43.1226968  19.2265794
  56.3181622  43.6036968  19.4845794  57.3951622  42.2366968  19.6515794
  59.1371622  43.0706968  18.0515794  59.7801622  43.4986968  17.4045794
  59.3581622  42.1806968  18.4725794  54.2301622  50.0446968  17.8005794
  53.5131622  49.6796968  16.8675794  53.8861622  51.0246968  18.6305794
  54.5051622  51.2976968  19.3795794  52.6541622  51.7746968  18.4335794
  51.8561622  51.0926968  18.1445794  52.2531622  52.4986968  19.7195794
  53.0791622  53.1396968  20.0325794  51.4041622  53.1466968  19.4975794
  51.8591622  51.5896968  20.8845794  52.7271622  51.0086968  21.1675794
  51.4251622  52.4116968  22.0855794  51.1821622  51.7436968  22.9105794
  52.2371622  53.0726968  22.3905794  50.5481622  53.0116968  21.8365794
  50.7641622  50.6336968  20.4645794  50.4481622  50.0506968  21.3295794
  49.9021622  51.1826968  20.0895794  51.1181622  49.9286968  19.7145794
  52.7991622  52.7716968  17.2875794  53.9101622  53.1356968  16.9005794
  51.6711622  53.1966968  16.7325794  50.7811622  52.8536968  17.0695794
  51.6781622  54.2486968  15.7285794  52.6321622  54.2526968  15.1995794
  50.5871622  54.0056968  14.6845794  49.6121622  54.0746968  15.1685794
  50.6351622  54.7796968  13.9185794  50.7231622  52.6516968  14.0075794
  51.7051622  52.3906968  13.3105794  49.7321622  51.7876968  14.1985794
  49.7771622  50.8756968  13.7755794  48.9541622  52.0356968  14.7975794
  51.5011622  55.5996968  16.4145794  51.0341622  55.6606968  17.5515794
  51.8741622  56.6786968  15.7305794  52.2151622  56.5766968  14.7865794
  51.9611622  57.9946968  16.3635794  52.5921622  57.8936968  17.2475794
  52.6391622  58.9756968  15.4205794  53.6211622  58.5946968  15.1365794
  52.0321622  59.1096968  14.5235794  52.7641622  59.9386968  15.9155794
  50.6121622  58.5596968  16.8235794  50.5711622  59.4836968  17.6345794
  49.5161622  58.0076968  16.3135794  49.6111622  57.2056968  15.7195794
  48.1831622  58.5066968  16.6555794  48.2391622  59.5656968  16.9045794
  47.2441622  58.3736968  15.4535794  46.2091622  58.5366968  15.7565794
  47.5021622  59.1526968  14.7345794  47.3821622  57.0356968  14.7515794
  48.5201622  56.5296968  14.6755794  46.3621622  56.4906968  14.2755794
  47.5771622  57.7856968  17.8555794  46.4831622  58.1266968  18.3115794
  48.2991622  56.7966968  18.3695794  49.1881622  56.5536968  17.9525794
  47.7431622  55.8826968  19.3575794  46.6541622  55.9086968  19.2935794
  48.1621622  54.4516968  19.0205794  49.2491622  54.3926968  19.0685794
  47.7491622  53.7716968  19.7665794  47.6871622  54.0096968  17.6475794
  46.5971622  53.9646968  17.6515794  47.9941622  54.7336968  16.8925794
  48.2401622  52.6626968  17.2265794  49.1521622  52.1446968  17.9045794
  47.7551622  52.1236968  16.2075794  48.1391622  56.2206968  20.7915794
  49.2711622  56.6256968  21.0645794  47.1851622  56.0446968  21.6985794
  46.2891622  55.6796968  21.4095794  47.4001622  56.2876968  23.1185794
  48.1991622  57.0196968  23.2475794  46.1331622  56.8646968  23.7665794
  45.3521622  56.1016968  23.7605794  46.3711622  57.0956968  24.7895794
  45.6011622  58.0956968  23.0965794  44.3801622  58.6466968  23.4205794
  43.7341622  58.2656968  24.0975794  44.1711622  59.7206968  22.6795794
  43.2881622  60.3426968  22.7065794  45.2141622  59.8896968  21.8855794
  46.1231622  58.8856968  22.1255794  47.0701622  58.7376968  21.6305794
  47.8081622  55.0016968  23.8405794  47.6231622  53.8996968  23.3235794
  48.3661622  55.1486968  25.0365794  48.5041622  56.0716968  25.4195794
  48.6121622  54.0026968  25.9085794  48.5131622  53.0716968  25.3485794
  50.0301622  54.0236968  26.4935794  50.1831622  54.9756968  26.9995794
  50.1901622  52.9056968  27.5075794  51.1621622  52.9586968  27.9895794
  49.4781622  52.9906968  28.3255794  50.0681622  51.9336968  27.0275794
  51.0651622  53.8906968  25.3785794  50.9091622  52.9416968  24.8695794
  50.9331622  54.6946968  24.6545794  52.4861622  53.9396968  25.8595794
  53.1561622  53.8436968  25.0055794  52.6711622  54.8956968  26.3505794
  52.6991622  53.1436968  26.5525794  47.6011622  53.9696968  27.0545794
  47.4771622  54.9316968  27.8135794  46.8651622  52.8696968  27.1625794
  46.9861622  52.1126968  26.5055794  45.9851622  52.6486968  28.3035794
  45.5731622  53.5986968  28.6465794  44.8021622  51.7546968  27.9135794
  45.1891622  50.8086968  27.5325794  44.1981622  51.5656968  28.7905794
  43.8921622  52.3786968  26.8545794  43.4441622  53.2846968  27.2665794
  44.4861622  52.6596968  25.9835794  42.7881622  51.4476968  26.3845794
  42.8021622  50.2536968  26.7595794  41.9021622  51.9126968  25.6345794
  46.8061622  52.0356968  29.4375794  47.0391622  50.8256968  29.4665794
  47.2511622  52.8846968  30.3615794  46.9791622  53.8566968  30.3095794
  48.2561622  52.4976968  31.3545794  49.1321622  52.1466968  30.8075794
  48.6971622  53.7226968  32.2035794  47.8651622  54.2006968  32.6985794
  49.6751622  53.3006968  33.2925794  50.0141622  54.1796968  33.8395794
  49.1961622  52.6436968  34.0165794  50.5331622  52.7906968  32.8535794
  49.3071622  54.7966968  31.3095794  49.6761622  55.6126968  31.9285794
  50.1361622  54.3806968  30.7355794  48.5571622  55.1976968  30.6265794
  47.8241622  51.3546968  32.2935794  48.5271622  50.3476968  32.3795794
  46.6741622  51.4856968  32.9885794  45.6791622  52.5686968  33.0485794
  44.9171622  52.3996968  32.2885794  46.0701622  53.5656968  32.9435794
  45.0941622  52.3906968  34.3985794  44.0821622  52.7886968  34.4155794
  45.7241622  52.8856968  35.1395794  45.0891622  50.9146968  34.6395794
  44.1821622  50.4896968  34.2065794  45.1351622  50.6876968  35.7055794
  46.3271622  50.3866968  33.9045794  47.1341622  50.2066968  34.6015794
  46.0061622  49.0766968  33.1845794  46.1871622  48.0006968  33.7505794
  45.5381622  49.1756968  31.9455794  45.3651622  50.0846968  31.5355794
  45.2641622  47.9976968  31.1355794  44.6091622  47.3286968  31.6945794
  44.5521622  48.3946968  29.8345794  45.0241622  49.2636968  29.3855794
  44.6771622  47.5696968  29.1325794  43.0411622  48.6186968  29.9625794
  42.6071622  48.5966968  28.9625794  42.6041622  47.7946968  30.5295794
  42.6561622  49.9476968  30.6215794  43.5501622  50.7656968  30.9375794
  41.4421622  50.1716968  30.8215794  46.5521622  47.2336968  30.8245794
  46.6151622  46.0126968  30.9975794  47.5771622  47.9576968  30.3745794
  47.4651622  48.9556968  30.2475794  48.8541622  47.3496968  29.9935794
  48.6501622  46.4276968  29.4535794  49.6561622  48.2996968  29.0975794
  49.5141622  49.3316968  29.4235794  50.7181622  48.0666968  29.1895794
  49.3001622  48.1566968  27.6275794  48.8341622  47.0696968  27.2305794
  49.4881622  49.1286968  26.8675794  49.7001622  46.9416968  31.2005794
  50.4701622  45.9846968  31.1285794  49.5641622  47.6676968  32.3055794
  48.9401622  48.4626968  32.3175794  50.2431622  47.2826968  33.5365794
  51.3001622  47.1276968  33.3235794  50.1091622  48.3746968  34.6015794
  49.0561622  48.6216968  34.7445794  50.4931622  47.9806968  35.5425794
  50.8921622  49.6606968  34.2985794  50.4811622  50.1836968  33.4495794
  50.7991622  50.3176968  35.1635794  52.6581622  49.4266968  33.9695794
  52.7061622  49.5806968  32.1875794  53.7401622  49.6826968  31.8705794
  52.2641622  48.6976968  31.7255794  52.1511622  50.4676968  31.8835794
  49.6831622  45.9526968  34.0485794  50.4221622  45.1136968  34.5615794
  48.3761622  45.7586968  33.8925794  47.8081622  46.4826968  33.4725794
  47.7361622  44.5066968  34.2835794  47.9921622  44.2936968  35.3215794
  46.1951622  44.6116968  34.1885794  45.9071622  44.9936968  33.2105794
  45.5361622  43.2546968  34.3915794  44.4591622  43.3866968  34.5035794
  45.7051622  42.6106968  33.5285794  45.9271622  42.7756968  35.2895794
  45.7191622  45.5116968  35.1975794  45.9491622  46.4056968  34.9265794
  48.2391622  43.3386968  33.4285794  48.4451622  42.2396968  33.9365794
  48.4481622  43.5786968  32.1365794  48.2471622  44.4926968  31.7545794
  49.0121622  42.5616968  31.2495794  48.3681622  41.6806968  31.2655794
  49.0991622  43.0826968  29.8165794  49.6431622  44.0246968  29.7985794
  49.6851622  42.3666968  29.2385794  47.7721622  43.2676968  29.1095794
  47.1911622  42.3516968  29.1485794  47.1981622  44.0456968  29.6045794
  48.0031622  43.6716968  27.6555794  48.5001622  44.6386968  27.6205794
  48.6791622  42.9486968  27.1995794  46.7671622  43.6756968  26.8775794
  46.4891622  42.8066968  26.4425794  46.0061622  44.7486968  26.6855794
  46.3501622  45.9146968  27.2195794  45.7601622  46.7236968  27.0965794
  47.2201622  46.0096968  27.7245794  44.8991622  44.6536968  25.9655794
  44.6431622  43.7796968  25.5275794  44.3071622  45.4596968  25.8275794
  50.4001622  42.1316968  31.7125794  50.7561622  40.9576968  31.6505794
  51.1751622  43.1066968  32.1735794  50.8161622  44.0506968  32.1805794
  52.5541622  42.9056968  32.6075794  53.0801622  42.3386968  31.8385794
  53.2431622  44.2776968  32.7475794  53.1831622  44.7256968  31.7545794
  52.6081622  44.9036968  33.3705794  54.6851622  44.5456968  33.2155794
  54.9411622  45.5586968  32.9045794  54.8221622  44.5086968  34.7325794
  55.7011622  43.9396968  35.0315794  54.8801622  45.5256968  35.1195794
  53.9641622  44.0256968  35.1865794  55.6941622  43.6186968  32.5555794
  56.7041622  43.9586968  32.7755794  55.5781622  42.6146968  32.9625794
  55.5491622  43.6216968  31.4755794  52.6311622  42.1166968  33.9135794
  53.4461622  41.1996968  34.0405794  51.7771622  42.4656968  34.8755794
  51.1191622  43.2126968  34.7095794  51.8551622  41.8856968  36.2155794
  52.9001622  41.7436968  36.4665794  51.2311622  42.8286968  37.2905794
  51.2931622  42.3446968  38.2645794  51.9911622  44.1436968  37.3675794
  51.5621622  44.7636968  38.1415794  53.0291622  43.9466968  37.6315794
  51.9671622  44.6806968  36.4235794  49.8571622  43.0996968  36.9855794
  49.8271622  43.5976968  36.1645794  51.1891622  40.5076968  36.3035794
  51.6191622  39.6576968  37.0795794  50.1441622  40.2866968  35.5145794
  49.7971622  41.0176968  34.9095794  49.5061622  38.9756968  35.4635794
  49.2811622  38.6586968  36.4825794  48.1971622  39.0286968  34.6755794
  47.5081622  39.6986968  35.1925794  48.4141622  39.4726968  33.7025794
  47.4991622  37.6866968  34.4275794  48.1991622  36.9876968  33.9715794
  47.0081622  37.0756968  35.7335794  46.4921622  36.1376968  35.5295794
  47.8511622  36.8656968  36.3915794  46.3211622  37.7576968  36.2365794
  46.3491622  37.8506968  33.4425794  45.7581622  36.9356968  33.3925794
  45.7211622  38.6826968  33.7415794  46.7521622  38.0636968  32.4525794
  50.4471622  37.9616968  34.8355794  50.6131622  36.8546968  35.3445794
  51.0671622  38.3506968  33.7285794  50.8761622  39.2606968  33.3325794
  51.9771622  37.4616968  33.0195794  51.4631622  36.5206968  32.8225794
  52.3801622  38.0606968  31.6695794  52.5781622  39.1266968  31.7665794
  53.2961622  37.5696968  31.3585794  51.3471622  37.8086968  30.5915794
  50.1431622  37.9846968  30.8655794  51.7351622  37.3986968  29.4785794
  53.2211622  37.1426968  33.8365794  53.7731622  36.0486968  33.7265794
  53.6581622  38.0926968  34.6555794  53.1921622  38.9886968  34.6855794
  54.8371622  37.8866968  35.4865794  55.6531622  37.5386968  34.8515794
  55.2851622  39.1956968  36.1615794  54.4391622  39.6586968  36.6705794
  56.3841622  38.9216968  37.1675794  56.8431622  39.8606968  37.4705794
  55.9731622  38.4526968  38.0585794  57.1481622  38.2826968  36.7265794
  55.7891622  40.0936968  35.1645794  56.5611622  39.6956968  34.7545794
  54.5951622  36.8156968  36.5555794  55.3561622  35.8536968  36.6495794
  53.5381622  36.9696968  37.3495794  52.9211622  37.7616968  37.2335794
  53.2391622  35.9906968  38.3955794  54.1541622  35.8456968  38.9695794
  52.1151622  36.4786968  39.3555794  52.4151622  37.4496968  39.7535794
  50.7981622  36.6716968  38.6205794  50.0641622  37.0946968  39.3065794
  50.9191622  37.3636968  37.7965794  50.4061622  35.7236968  38.2515794
  51.9511622  35.5146968  40.5355794  51.1941622  35.9446968  41.1825794
  51.5901622  34.5406968  40.2085794  53.2041622  35.3486968  41.3845794
  52.9311622  34.9306968  42.3555794  53.9021622  34.6646968  40.8975794
  53.6871622  36.3146968  41.5445794  52.8541622  34.6546968  37.7655794
  53.1241622  33.5936968  38.3295794  52.2561622  34.7116968  36.5775794
  52.0431622  35.6086968  36.1635794  51.9111622  33.5116968  35.8375794
  51.2501622  32.8836968  36.4355794  51.3921622  33.8196968  34.9315794
  53.1291622  32.7116968  35.4055794  53.1321622  31.4826968  35.4645794
  54.1741622  33.4076968  34.9715794  54.1301622  34.4166968  34.9185794
  55.3881622  32.7376968  34.5205794  55.0881622  31.8266968  34.0045794
  56.1581622  33.6226968  33.5435794  55.4701622  33.9516968  32.7625794
  56.5051622  34.5166968  34.0645794  57.3481622  32.9356968  32.8785794
  58.0411622  32.6056968  33.6475794  56.8801622  31.7166968  32.0965794
  57.6761622  31.3686968  31.4355794  56.6411622  30.9026968  32.7745794
  56.0061622  31.9586968  31.4915794  58.0931622  33.9106968  31.9805794
  59.0091622  33.4516968  31.6085794  57.4661622  34.1896968  31.1335794
  58.3481622  34.8166968  32.5275794  56.2901622  32.3586968  35.6915794
  56.6691622  31.1966968  35.8435794  56.6331622  33.3506968  36.5075794
  56.3061622  34.2866968  36.3205794  57.5201622  33.1436968  37.6415794
  58.4741622  32.7636968  37.2725794  57.7771622  34.4636968  38.3665794
  56.8291622  34.8436968  38.7475794  58.4311622  34.2836968  39.2175794
  58.5181622  35.7296968  37.3295794  59.6961622  35.1036968  37.1495794
  56.9581622  32.1336968  38.6215794  57.6891622  31.3026968  39.1575794
  55.6511622  32.2056968  38.8425794  55.0951622  32.8986968  38.3615794
  55.0061622  31.4066968  39.8645794  55.6791622  31.2896968  40.7145794
  54.1311622  31.9556968  40.2115794  54.5401622  30.0386968  39.4165794
  54.5611622  29.0986968  40.2045794  54.1221622  29.9136968  38.1595794
  54.1251622  30.7146968  37.5445794  53.4791622  28.6816968  37.7045794
  53.6851622  27.8746968  38.4065794  51.9621622  28.8806968  37.6555794
  51.7141622  29.5736968  36.8495794  51.4941622  27.9266968  37.4235794
  51.3841622  29.3986968  38.9405794  50.9951622  28.5226968  39.9455794
  51.0131622  27.4626968  39.7655794  50.4711622  28.9956968  41.1345794
  50.1961622  28.3046968  41.9145794  50.3321622  30.3596968  41.3355794
  49.9371622  30.7256968  42.2675794  50.7201622  31.2446968  40.3425794
  50.6111622  32.3086968  40.4935794  51.2451622  30.7616968  39.1535794
  51.5451622  31.4586968  38.3845794  53.9701622  28.1906968  36.3485794
  53.4691622  27.1846968  35.8425794  54.9411622  28.9006968  35.7735794
  55.3191622  29.7066968  36.2515794  55.5051622  28.5786968  34.4575794
  56.1531622  29.4066968  34.1905794  56.3401622  27.2946968  34.5315794
  56.8831622  27.2746968  35.4765794  55.6881622  26.4216968  34.4985794
  57.3771622  27.1996968  33.4205794  57.7141622  28.1946968  32.7775794
  57.8971622  25.9966968  33.2015794  57.6011622  25.2066968  33.7535794
  58.5981622  25.8886968  32.4855794  54.4181622  28.4506968  33.3855794
  54.5121622  27.6236968  32.4755794  53.3861622  29.2816968  33.5115794
  53.3681622  29.9406968  34.2775794  52.2831622  29.3216968  32.5595794
  52.4301622  28.5686968  31.7845794  50.9581622  29.0016968  33.2605794
  51.0381622  28.0146968  33.7185794  50.8031622  29.7196968  34.0685794
  49.7421622  29.0086968  32.3535794  49.4461622  27.9166968  31.5445794
  50.0891622  27.0476968  31.5595794  48.3321622  27.9176968  30.7155794
  48.1241622  27.0606968  30.0925794  47.4931622  29.0176968  30.6945794
  46.3861622  29.0236968  29.8725794  46.3271622  28.2096968  29.3675794
  47.7611622  30.1116968  31.4945794  47.1071622  30.9696968  31.4765794
  48.8791622  30.1006968  32.3205794  49.0831622  30.9616968  32.9425794
  52.2211622  30.6946968  31.8905794  52.2721622  31.7306968  32.5585794
  52.1171622  30.7046968  30.5675794  52.0651622  29.8376968  30.0525794
  52.0881622  31.9646968  29.8405794  52.4911622  32.7686968  30.4595794
  52.9841622  31.8886968  28.6055794  52.7411622  30.9976968  28.0235794
  52.7841622  32.7656968  27.9925794  54.4621622  31.8946968  28.9495794
  54.6831622  32.7906968  29.5325794  54.7011622  31.0166968  29.5515794
  55.3281622  31.8926968  27.7115794  55.1631622  30.9566968  27.1765794
  55.0251622  32.7056968  27.0505794  56.7481622  31.9856968  28.0395794
  57.2351622  31.1296968  28.2605794  57.4391622  33.1216968  28.0625794
  56.8431622  34.2686968  27.7685794  55.8651622  34.2886968  27.5315794
  57.3881622  35.1226968  27.7855794  58.7281622  33.1096968  28.3725794
  59.2061622  32.2456968  28.5775794  59.2681622  33.9666968  28.3245794
  50.6691622  32.3516968  29.4525794  50.0431622  31.7086968  28.6115794
  50.1651622  33.4006968  30.0975794  50.7191622  33.8586968  30.8065794
  48.8551622  33.9526968  29.7855794  48.1241622  33.1436968  29.7605794
  48.4221622  34.9656968  30.8465794  49.2311622  35.6746968  31.0075794
  47.5641622  35.5276968  30.4745794  48.0381622  34.3476968  32.1555794
  46.7701622  33.8196968  32.3375794  46.0511622  33.8586968  31.5365794
  46.4081622  33.2526968  33.5435794  45.4051622  32.8906968  33.6745794
  47.3121622  33.2136968  34.5875794  47.0251622  32.7856968  35.5355794
  48.5781622  33.7406968  34.4205794  49.2641622  33.7366968  35.2515794
  48.9351622  34.3076968  33.2105794  49.9271622  34.7206968  33.0965794
  48.8741622  34.6156968  28.4205794  47.8461622  34.7026968  27.7515794
  50.0551622  35.0866968  28.0285794  50.8451622  35.0276968  28.6545794
  50.2571622  35.7506968  26.7485794  51.2671622  36.1636968  26.7415794
  50.1321622  34.7386968  25.6095794  49.1581622  34.2506968  25.6365794
  50.2021622  35.2416968  24.6485794  51.2351622  33.6906968  25.6385794
  52.4101622  34.0226968  25.7915794  50.8631622  32.4236968  25.4825794
  51.5661622  31.7006968  25.5015794  49.8901622  32.1896968  25.3705794
  49.2911622  36.9176968  26.5545794  48.5531622  36.9806968  25.5665794
  49.3141622  37.8446968  27.5075794  49.9551622  37.7436968  28.2855794
  48.3541622  38.9436968  27.5445794  47.3571622  38.5376968  27.3665794
  48.3521622  39.5986968  28.9275794  49.3221622  40.0526968  29.1325794
  47.5781622  40.3586968  28.9395794  48.0451622  38.6556968  29.9375794
  48.8781622  38.3286968  30.3125794  48.6231622  40.0026968  26.4875794
  47.7261622  40.7566968  26.1185794  49.8581622  40.0716968  26.0085794
  50.5761622  39.4496968  26.3525794  50.1931622  41.0526968  24.9885794
  49.6081622  41.9596968  25.1445794  51.6701622  41.4376968  25.0745794
  52.2821622  40.5356968  25.0195794  51.9271622  42.0586968  24.2155794
  52.0091622  42.2136968  26.3135794  51.6161622  43.5366968  26.4465794
  51.0671622  44.0126968  25.6505794  51.9151622  44.2536968  27.5895794
  51.5901622  45.2806968  27.6865794  52.6121622  43.6506968  28.6175794
  52.8551622  44.2086968  29.5095794  53.0051622  42.3306968  28.5035794
  53.5431622  41.8546968  29.3095794  52.6991622  41.6176968  27.3565794
  53.0101622  40.5856968  27.2785794  49.8371622  40.5126968  23.6095794
  50.0031622  41.1936968  22.6015794  49.3241622  39.2886968  23.5785794
  49.2201622  38.7596968  24.4325794  48.8271622  38.6976968  22.3435794
  49.2181622  39.2376968  21.4805794  49.2941622  37.2446968  22.2255794
  48.9571622  36.6766968  23.0895794  48.8271622  36.7916968  21.3505794
  50.7941622  37.0926968  22.0705794  51.6291622  37.0566968  23.1815794
  51.2141622  37.1646968  24.1715794  52.9971622  36.9166968  23.0415794
  53.6361622  36.9026968  23.9135794  53.5461622  36.8106968  21.7755794
  54.9091622  36.6726968  21.6245794  55.1721622  36.5536968  20.7105794
  52.7381622  36.8436968  20.6585794  53.1681622  36.7556968  19.6715794
  51.3731622  36.9826968  20.8095794  50.7471622  37.0156968  19.9295794
  47.3011622  38.7776968  22.2775794  46.6761622  38.1386968  21.4255794
  46.7151622  39.5786968  23.1715794  47.2861622  40.1136968  23.8095794
  45.2621622  39.6326968  23.3515794  44.7801622  39.0766968  22.5465794
  44.8681622  38.9606968  24.6745794  45.4821622  39.3646968  25.4805794
  43.8301622  39.2226968  24.8895794  44.9651622  37.4376968  24.6795794
  44.3111622  37.0576968  23.8935794  45.9861622  37.1206968  24.4655794
  44.5291622  36.8596968  26.0235794  45.3801622  36.8426968  26.7065794
  43.7821622  37.5236968  26.4605794  43.8981622  35.5426968  25.9005794
  42.9201622  35.5266968  25.6545794  44.5281622  34.3836968  26.0785794
  45.8161622  34.3676968  26.3905794  46.2991622  33.4996968  26.5555794
  46.3301622  35.2336968  26.4825794  43.8711622  33.2376968  25.9525794
  44.3631622  32.3636968  26.0515794  42.8941622  33.2456968  25.7035794
  44.6861622  41.0556968  23.3145794  45.2571622  41.9876968  23.8865794
  43.5431622  41.1916968  22.6385794  43.1581622  40.3866968  22.1665794
  42.7951622  42.4496968  22.5285794  43.4591622  43.2236968  22.1425794
  41.6071622  42.2876968  21.5695794  41.0671622  41.3656968  21.7955794
  40.9201622  43.1256968  21.7015794  42.0171622  42.2846968  20.1175794
  42.9011622  43.0886968  19.7575794  41.4391622  41.4936968  19.3355794
  42.2551622  42.9336968  23.8615794  42.7561622  43.8926968  24.4455794
  41.1931622  42.2666968  24.3045794  40.8331622  41.5036968  23.7515794
  40.5421622  42.5426968  25.5785794  40.5441622  43.6196968  25.7555794
  39.0881622  42.0596968  25.5375794  39.1021622  40.9716968  25.4535794
  38.5711622  42.2986968  26.4635794  38.2851622  42.5966968  24.3615794
  38.8021622  42.4146968  23.4185794  37.3421622  42.0516968  24.3145794
  37.9531622  44.0716968  24.4995794  37.9131622  44.6116968  25.6065794
  37.7161622  44.7296968  23.3715794  37.5021622  45.7146968  23.4155794
  37.7721622  44.2546968  22.4835794  41.3181622  41.8546968  26.7005794
  42.2651622  41.1156968  26.4245794  40.9411622  42.0986968  27.9685794
  40.1101622  43.1776968  28.5315794  39.0601622  42.8846968  28.5205794
  40.2581622  44.1226968  28.0075794  40.5921622  43.2716968  29.9505794
  39.8051622  43.6296968  30.6155794  41.4521622  43.9426968  29.9945794
  41.0221622  41.8986968  30.3055794  40.1471622  41.3076968  30.5835794
  41.7461622  41.9076968  31.1195794  41.6421622  41.3536968  29.0175794
  42.7051622  41.6006968  28.9915794  41.4401622  39.8426968  28.9095794
  40.4851622  39.3776968  28.2825794  42.3641622  39.0926968  29.5005794
  43.1291622  39.5376968  29.9865794  42.2491622  37.6456968  29.5775794
  42.2641622  37.2796968  28.5535794  43.4561622  37.0526968  30.3205794
  44.3661622  37.5166968  29.9355794  43.3851622  37.2936968  31.3815794
  43.6061622  35.5696968  30.1645794  42.9311622  34.6646968  30.9555794
  43.2621622  33.4366968  30.5985794  42.8111622  32.5316968  30.9655794
  44.1351622  33.5096968  29.6105794  44.5671622  32.7206968  29.1515794
  44.3701622  34.8336968  29.3215794  45.0751622  35.2356968  28.6145794
  40.9381622  37.3096968  30.2835794  40.5281622  38.0266968  31.1985794
  40.2591622  36.2406968  29.8385794  40.6151622  35.4426968  28.6505794
  41.5011622  34.8406968  28.8255794  40.7371622  36.0676968  27.7655794
  39.4241622  34.5376968  28.4695794  39.7201622  33.5676968  28.0695794
  38.7141622  35.0166968  27.7935794  38.8011622  34.4046968  29.8115794
  39.3351622  33.6396968  30.3785794  37.7421622  34.1526968  29.7415794
  39.0081622  35.7776968  30.4505794  38.1961622  36.4506968  30.1695794
  39.1001622  35.6646968  31.9715794  38.1021622  35.8736968  32.6625794
  40.2881622  35.3456968  32.4765794  41.0681622  35.1806968  31.8565794
  40.5371622  35.3036968  33.9105794  39.8481622  34.5866968  34.3605794
  41.9671622  34.8356968  34.1905794  42.1131622  33.8626968  33.7195794
  42.6711622  35.5296968  33.7285794  42.2931622  34.7106968  35.6555794
  42.0161622  33.5396968  36.3425794  41.5591622  32.7056968  35.8275794
  42.3151622  33.4196968  37.6885794  42.0881622  32.5026968  38.2125794
  42.8931622  34.4776968  38.3625794  43.1251622  34.3866968  39.4145794
  43.1741622  35.6516968  37.6905794  43.6251622  36.4826968  38.2145794
  42.8781622  35.7646968  36.3445794  43.1151622  36.6846968  35.8285794
  40.2951622  36.6686968  34.5505794  39.6291622  36.7696968  35.5795794
  40.8341622  37.7136968  33.9315794  41.3441622  37.5756968  33.0715794
  40.7331622  39.0686968  34.4685794  41.0831622  39.0386968  35.4975794
  41.5821622  40.0566968  33.6425794  41.2661622  40.0256968  32.6015794
  41.3961622  41.4816968  34.1495794  42.1401622  42.1386968  33.6985794
  40.4131622  41.8586968  33.8665794  41.4951622  41.5336968  35.2335794
  43.0571622  39.6646968  33.7085794  43.1881622  38.6586968  33.3105794
  43.6331622  40.3326968  33.0665794  43.6361622  39.7146968  35.1125794
  44.3731622  40.5156968  35.1615794  42.9001622  39.8986968  35.8835794
  44.1341622  38.7736968  35.3405794  39.2891622  39.5746968  34.5225794
  38.8771622  40.1876968  35.5055794  38.5241622  39.3146968  33.4665794
  38.9071622  38.8106968  32.6785794  37.1281622  39.7376968  33.4165794
  37.0911622  40.8196968  33.5495794  36.4901622  39.3936968  32.0635794
  36.5791622  38.3236968  31.8755794  35.0181622  39.7806968  32.0505794
  34.6271622  39.6816968  31.0375794  34.4461622  39.1176968  32.6975794
  34.8941622  40.8116968  32.3835794  37.1751622  40.1036968  31.0255794
  37.0771622  41.0456968  31.1825794  36.3171622  39.0966968  34.5395794
  35.5751622  39.7766968  35.2515794  36.4751622  37.7866968  34.6995794
  37.0941622  37.2716968  34.0875794  35.8201622  37.0586968  35.7805794
  34.7481622  37.2356968  35.7105794  36.0701622  35.5606968  35.6405794
  37.1411622  35.3696968  35.5565794  35.6911622  35.0526968  36.5255794
  35.4091622  35.0486968  34.5005794  34.4621622  35.1056968  34.6585794
  36.2781622  37.5316968  37.1575794  35.4551622  37.7366968  38.0495794
  37.5871622  37.7066968  37.3215794  38.2121622  37.5266968  36.5495794
  38.1631622  38.1196968  38.5985794  37.8621622  37.3996968  39.3595794
  39.6871622  38.1136968  38.5175794  40.0291622  37.1056968  38.2805794
  39.9661622  38.7536968  37.6875794  40.3751622  38.5586968  39.7965794
  39.8711622  39.4176968  40.2345794  40.3391622  37.7406968  40.5125794
  42.0831622  39.0466968  39.5085794  41.8521622  40.4616968  38.4285794
  41.1671622  41.1666968  38.8995794  42.8091622  40.9546968  38.2665794
  41.4511622  40.1596968  37.4655794  37.6851622  39.4996968  39.0465794
  37.2911622  39.6886968  40.2015794  37.7321622  40.4636968  38.1345794
  38.0591622  40.2616968  37.2005794  37.3301622  41.8286968  38.4515794
  37.9131622  42.1756968  39.3065794  37.5881622  42.7816968  37.2635794
  37.1721622  42.3366968  36.3575794  36.9021622  44.1226968  37.4825794
  37.2121622  44.8266968  36.7095794  35.8181622  44.0256968  37.4205794
  37.1751622  44.5306968  38.4555794  39.0801622  42.9696968  37.0585794
  39.2581622  43.5206968  36.1355794  39.5001622  43.5306968  37.8945794
  39.5961622  42.0146968  36.9995794  35.8581622  41.8746968  38.8405794
  35.4851622  42.5076968  39.8305794  35.0291622  41.1796968  38.0675794
  35.3911622  40.6696968  37.2725794  33.5931622  41.1426968  38.3135794
  33.2311622  42.1696968  38.3815794  32.8801622  40.4586968  37.1435794
  33.1491622  41.0006968  36.2355794  33.2501622  39.4366968  37.0465794
  31.3641622  40.4376968  37.2565794  31.0541622  39.6976968  37.9935794
  31.0161622  41.4156968  37.5905794  30.7091622  40.1396968  35.9125794
  29.6341622  40.0606968  36.0625794  30.8831622  41.0016968  35.2705794
  31.1911622  38.9016968  35.3005794  31.2471622  38.0836968  35.8945794
  31.6091622  38.8056968  34.0415794  31.6101622  39.8756968  33.2565794
  31.2921622  40.7606968  33.6165794  31.9291622  39.7996968  32.3035794
  32.0281622  37.6396968  33.5645794  32.3441622  37.5616968  32.6125794
  32.0521622  36.8366968  34.1765794  33.2641622  40.4366968  39.6355794
  32.3591622  40.8506968  40.3635794  34.0111622  39.3786968  39.9415794
  34.7261622  39.0666968  39.3005794  33.8071622  38.6176968  41.1695794
  32.7411622  38.4126968  41.2755794  34.5311622  37.2856968  41.0885794
  34.3461622  36.7106968  41.9955794  34.1571622  36.7166968  40.2385794
  35.6041622  37.4466968  40.9755794  34.2661622  39.3926968  42.4035794
  33.7151622  39.2166968  43.4925794  35.2781622  40.2416968  42.2345794
  35.7101622  40.3446968  41.3265794  35.7551622  41.0786968  43.3305794
  35.7101622  40.5146968  44.2595794  37.1971622  41.5326968  43.0845794
  37.2711622  41.9116968  42.0635794  37.4041622  42.3726968  43.7505794
  38.2951622  40.4876968  43.3085794  38.1111622  39.6346968  42.6565794
  39.6611622  41.0526968  42.9585794  40.4241622  40.2846968  43.0815794
  39.6691622  41.3816968  41.9185794  39.8931622  41.8996968  43.6055794
  38.2781622  39.9836968  44.7395794  39.1241622  39.3146968  44.9015794
  38.3491622  40.8166968  45.4325794  37.3711622  39.4166968  44.9405794
  34.8431622  42.2856968  43.5165794  34.6791622  42.7836968  44.6345794
  34.2551622  42.7576968  42.4195794  34.4561622  42.3476968  41.5185794
  33.2661622  43.8296968  42.4855794  33.6941622  44.6696968  43.0315794
  32.8381622  44.2776968  41.0815794  32.8741622  43.4396968  40.3875794
  31.8041622  44.6256968  41.1175794  33.6761622  45.4336968  40.5505794
  34.1631622  46.2436968  41.3675794  33.8491622  45.5346968  39.3145794
  32.0571622  43.3606968  43.2815794  31.4411622  44.1346968  44.0115794
  31.7311622  42.0796968  43.1375794  32.2571622  41.5016968  42.4975794
  30.6111622  41.4826968  43.8505794  29.7261622  42.0906968  43.6635794
  30.3431622  40.0646968  43.3355794  30.2021622  40.0916968  42.2545794
  31.2161622  39.4466968  43.5305794  29.1451622  39.3766968  43.9785794
  29.1111622  38.3476968  43.6205794  29.2671622  39.3426968  45.0625794
  27.8211622  40.0406968  43.6305794  27.7681622  40.8146968  42.6495794
  26.8271622  39.7876968  44.3425794  30.8701622  41.4626968  45.3535794
  29.9971622  41.8116968  46.1475794  32.0781622  41.0616968  45.7365794
  32.7591622  40.7896968  45.0405794  32.4651622  41.0256968  47.1415794
  31.7691622  40.3736968  47.6705794  33.8631622  40.4396968  47.2895794
  34.1291622  40.3896968  48.3455794  33.8931622  39.4326968  46.8705794
  34.5901622  41.0636968  46.7685794  32.3971622  42.4126968  47.7805794
  31.9321622  42.5576968  48.9075794  32.8541622  43.4316968  47.0595794
  33.2361622  43.2726968  46.1365794  32.8201622  44.7976968  47.5765794
  33.2411622  44.8006968  48.5835794  33.6721622  45.7286968  46.7075794
  34.6811622  45.3276968  46.6365794  33.2541622  45.7276968  45.7015794
  33.7591622  47.1656968  47.2165794  32.7591622  47.5396968  47.4345794
  34.3361622  47.1796968  48.1415794  34.5191622  48.2996968  46.0305794
  33.3311622  48.2276968  44.6885794  33.2951622  49.1956968  44.1865794
  33.6371622  47.4646968  43.9705794  32.3401622  47.9886968  45.0765794
  31.3871622  45.3196968  47.6515794  30.9741622  45.8876968  48.6635794
  30.6331622  45.1146968  46.5755794  31.0261622  44.6436968  45.7735794
  29.2641622  45.6116968  46.4755794  29.2801622  46.6776968  46.7105794
  28.7551622  45.4436968  45.0405794  29.4441622  45.9356968  44.3525794
  28.7341622  44.3806968  44.7955794  27.3781622  46.0436968  44.8325794
  27.0371622  47.0706968  45.4215794  26.5701622  45.3926968  44.0015794
  25.6721622  45.7966968  43.7825794  26.9181622  44.5916968  43.4975794
  28.3031622  44.9256968  47.4525794  27.2981622  45.5126968  47.8585794
  28.6151622  43.6886968  47.8315794  29.4511622  43.2476968  47.4695794
  27.7471622  42.9276968  48.7265794  26.7291622  42.9956968  48.3435794
  28.1551622  41.4496968  48.7545794  28.3621622  41.1136968  47.7435794
  29.0641622  41.3476968  49.3505794  27.0621622  40.5296968  49.2835794
  26.5081622  40.9986968  50.0905794  26.3521622  40.3086968  48.4945794
  27.6121622  39.2276968  49.8315794  28.3141622  39.4526968  50.6235794
  26.7891622  38.6426968  50.2445794  28.3181622  38.4206968  48.7635794
  27.6291622  38.2326968  47.9395794  29.1701622  38.9886968  48.3865794
  28.7961622  37.1226968  49.3145794  28.0161622  36.5746968  49.6495794
  29.2811622  36.5936968  48.6015794  29.4371622  37.2856968  50.0785794
  27.7641622  43.5016968  50.1445794  26.8861622  43.2016968  50.9545794
  28.7621622  44.3326968  50.4365794  29.4561622  44.5576968  49.7365794
  28.8961622  44.9446968  51.7545794  28.8291622  44.1626968  52.5115794
  30.2601622  45.6306968  51.8955794  30.3981622  46.3466968  51.0865794
  30.2551622  46.1986968  52.8275794  31.4511622  44.6826968  51.9625794
  31.2701622  43.9386968  52.7405794  31.5481622  44.1586968  51.0135794
  32.7531622  45.4036968  52.2645794  33.4281622  45.8706968  51.2185794
  33.1471622  45.5406968  53.4245794  32.5741622  45.2116968  54.1885794
  33.9891622  46.0676968  53.5945794  27.7871622  45.9566968  52.0455794
  27.6251622  46.3876968  53.1895794  27.0291622  46.3316968  51.0165794
  27.2261622  45.9746968  50.0925794  25.9751622  47.3376968  51.1585794
  26.0851622  47.8566968  52.1085794  26.0701622  48.3656968  50.0295794
  25.9881622  47.8606968  49.0655794  25.2331622  49.0596968  50.1135794
  27.3491622  49.1716968  50.0585794  28.1761622  48.5466968  49.7185794
  27.2531622  50.0116968  49.3695794  27.6591622  49.6916968  51.4465794
  28.7061622  49.3806968  52.0185794  26.7471622  50.4856968  52.0005794
  26.9191622  50.8806968  52.9125794  25.9081622  50.7176968  51.4925794
  24.5701622  46.7376968  51.1855794  23.5941622  47.4336968  51.4705794
  24.4711622  45.4466968  50.8945794  25.3031622  44.9056968  50.7035794
  23.1771622  44.7796968  50.8695794  22.4391622  45.4586968  50.4375794
  23.2311622  43.5436968  49.9745794  23.9661622  42.8486968  50.3835794
  22.2561622  43.0536968  49.9895794  23.5951622  43.8506968  48.5415794
  22.8301622  44.4676968  48.0775794  24.5351622  44.4036968  48.5255794
  23.7981622  42.5786968  47.7595794  24.4131622  41.9106968  48.3635794
  22.8461622  42.0926968  47.5775794  24.4821622  42.8366968  46.5015794
  24.4531622  43.7776968  46.1375794  25.1301622  41.9056968  45.8155794
  25.1741622  40.6646968  46.2795794  24.6841622  40.4246968  47.1255794
  25.6631622  39.9626968  45.7395794  25.7361622  42.2166968  44.6775794
  25.7091622  43.1626968  44.3325794  26.2251622  41.4986968  44.1585794
  22.7151622  44.3846968  52.2645794  23.2651622  43.4666968  52.8735794
  21.6941622  45.0786968  52.7585794  21.3071622  45.8466968  52.2305794
  21.1181622  44.7766968  54.0635794  21.9131622  44.8126968  54.8095794
  20.0711622  45.8186968  54.4345794  19.6681622  45.6006968  55.4245794
  20.5291622  46.8086968  54.4515794  19.2581622  45.8086968  53.7075794
  20.5091622  43.3746968  54.0805794  20.4621622  42.7206968  55.1235794
  20.0461622  42.9226968  52.9185794  20.0871622  43.5116968  52.1005794
  19.5001622  41.5766968  52.7725794  19.6851622  40.9896968  53.6725794
  17.9841622  41.6286968  52.5895794  17.7411622  42.1276968  51.6495794
  17.5911622  40.6116968  52.5505794  17.2881622  42.3796968  53.7025794
  16.6851622  43.4296968  53.4745794  17.3631622  41.8426968  54.9165794
  16.9131622  42.3116968  55.6865794  17.8771622  40.9886968  55.0655794
  20.1331622  40.8526968  51.5955794  19.5331622  40.7696968  50.5235794
  21.3511622  40.3206968  51.7925794  22.0681622  40.3136968  53.0795794
  21.6671622  39.5256968  53.7195794  22.0451622  41.2736968  53.5875794
  23.4761622  39.9906968  52.6815794  24.0111622  39.4836968  53.4855794
  23.9991622  40.9096968  52.4125794  23.3541622  39.1286968  51.4755794
  23.1781622  38.0986968  51.7935794  24.2501622  39.1796968  50.8555794
  22.1271622  39.6696968  50.7295794  22.4331622  40.4186968  49.9975794
  21.3741622  38.5326968  50.0385794  21.6061622  38.2706968  48.8565794
  20.4771622  37.8726968  50.7635794  20.3231622  38.1126968  51.7315794
  19.7921622  36.7056968  50.2225794  20.3551622  36.3026968  49.3825794
  19.7231622  35.6036968  51.2725794  19.1431622  35.9556968  52.1275794
  19.2151622  34.7316968  50.8575794  21.0891622  35.1686968  51.7355794
  21.7021622  34.3076968  51.0635794  21.5521622  35.6986968  52.7685794
  18.3951622  37.0206968  49.7095794  17.6151622  36.1106968  49.4315794
  18.0791622  38.3066968  49.5925794  18.7471622  39.0186968  49.8495794
  16.8941622  38.7126968  48.8535794  16.0341622  38.2656968  49.3505794
  16.7181622  40.2346968  48.8725794  16.8031622  40.5816968  49.9035794
  17.5161622  40.7026968  48.2935794  15.3691622  40.6816968  48.3255794
  14.4901622  41.0566968  49.1315794  15.1871622  40.6596968  47.0905794
  17.0561622  38.1896968  47.4295794  18.1511622  38.2416968  46.8675794
  15.9751622  37.6566968  46.8455794  14.6521622  37.4506968  47.4575794
  14.2961622  38.3356968  47.9855794  14.6841622  36.5846968  48.1195794
  13.7851622  37.1716968  46.2755794  13.4531622  38.1176968  45.8445794
  12.9231622  36.5636968  46.5505794  14.6601622  36.4686968  45.2995794
  14.2871622  36.5736968  44.2795794  14.7131622  35.4106968  45.5625794
  16.0461622  37.0986968  45.4905794  16.8011622  36.3306968  45.4795794
  16.3281622  38.1466968  44.4085794  16.4661622  37.7906968  43.2395794
  16.4171622  39.4146968  44.7955794  16.2501622  39.6636968  45.7605794
  16.7891622  40.4746968  43.8625794  16.1481622  40.4076968  42.9825794
  16.5851622  41.8416968  44.4965794  16.8741622  42.6206968  43.7905794
  15.5341622  41.9726968  44.7545794  17.1931622  41.9286968  45.3975794
  18.2371622  40.3086968  43.4145794  18.6281622  40.7776968  42.3455794
  19.0251622  39.6356968  44.2455794  18.6411622  39.2626968  45.1035794
  20.4431622  39.4456968  43.9805794  20.7661622  40.1496968  43.2165794
  21.2591622  39.7206968  45.2455794  21.0271622  38.9566968  45.9895794
  22.3221622  39.6526968  45.0115794  20.9991622  41.0896968  45.8325794
  21.3061622  42.2386968  45.1145794  21.7311622  42.1496968  44.1245794
  21.0711622  43.4946968  45.6345794  21.3031622  44.3756968  45.0535794
  20.5251622  43.6186968  46.8935794  20.2981622  44.8766968  47.4045794
  19.7471622  44.8626968  48.1925794  20.2111622  42.4926968  47.6325794
  19.7741622  42.5896968  48.6145794  20.4491622  41.2366968  47.0995794
  20.1781622  40.3596968  47.6705794  20.7231622  38.0436968  43.4595794
  21.8571622  37.5686968  43.5095794  19.6841622  37.3866968  42.9545794
  18.7641622  37.8046968  42.9605794  19.8311622  36.0506968  42.3895794
  20.3581622  35.4166968  43.1035794  18.4611622  35.4196968  42.1095794
  17.7661622  36.1686968  41.7325794  18.5841622  34.6676968  41.3275794
  17.8781622  34.7086968  43.3285794  18.2911622  35.0186968  44.4655794
  17.0041622  33.8356968  43.1465794  20.6701622  36.0986968  41.1165794
  21.4611622  35.1926968  40.8605794  20.5091622  37.1586968  40.3265794
  19.8411622  37.8766968  40.5705794  21.3061622  37.3216968  39.1125794
  21.2211622  36.4096968  38.5205794  20.7781622  38.4866968  38.2635794
  21.2921622  38.4606968  37.3015794  19.7141622  38.3306968  38.0785794
  20.9841622  39.8716968  38.8675794  20.4001622  39.9616968  39.7845794
  22.0361622  40.0106968  39.1045794  20.6051622  40.9966968  37.9145794
  19.6961622  40.7976968  37.0795794  21.2271622  42.0786968  37.9945794
  22.7841622  37.5316968  39.4685794  23.6811622  37.1036968  38.7425794
  23.0291622  38.1756968  40.6025794  22.2621622  38.5316968  41.1565794
  24.3861622  38.3806968  41.0825794  24.9901622  38.7716968  40.2615794
  24.3961622  39.4136968  42.2075794  23.8851622  39.0386968  43.0925794
  25.4361622  39.5826968  42.4525794  23.7761622  40.7326968  41.7855794
  22.5601622  40.8316968  41.6155794  24.6071622  41.7536968  41.6185794
  25.6011622  41.6146968  41.7365794  24.2411622  42.6306968  41.2795794
  25.0021622  37.0646968  41.5495794  26.1641622  36.7826968  41.2595794
  24.2171622  36.2556968  42.2595794  23.2671622  36.5356968  42.4665794
  24.6791622  34.9496968  42.7285794  25.6081622  35.0886968  43.2835794
  23.6481622  34.3086968  43.6655794  22.7151622  34.1776968  43.1145794
  24.0091622  33.3176968  43.9445794  23.3521622  35.0846968  44.9485794
  24.2751622  35.1586968  45.5245794  23.0301622  36.0876968  44.7465794
  22.3071622  34.3536968  45.7965794  21.4661622  34.0786968  45.1575794
  22.7361622  33.4406968  46.2115794  21.7511622  35.2246968  46.9195794
  21.3701622  36.1536968  46.4915794  20.9171622  34.7016968  47.3895794
  22.7691622  35.5366968  47.9565794  22.3501622  36.1356968  48.6575794
  23.0731622  34.6816968  48.4025794  23.5561622  36.0086968  47.5375794
  24.9681622  34.0056968  41.5595794  25.8431622  33.1466968  41.6455794
  24.2241622  34.1656968  40.4685794  23.4961622  34.8676968  40.4575794
  24.3821622  33.3006968  39.3015794  24.5081622  32.2756968  39.6475794
  23.1211622  33.3306968  38.4355794  22.2571622  33.0946968  39.0595794
  22.9831622  34.3526968  38.0835794  23.1511622  32.3446968  37.2775794
  24.1621622  32.0506968  37.0105794  22.6251622  31.4376968  37.5765794
  22.4841622  32.9186968  36.0345794  22.4511622  32.1546968  35.2565794
  21.4551622  33.1816968  36.2825794  23.1631622  34.1206968  35.5445794
  22.8201622  35.0116968  35.8735794  24.1901622  34.1116968  34.6985794
  24.6711622  32.9626968  34.2435794  24.2741622  32.0856968  34.5445794
  25.4571622  32.9506968  33.6095794  24.7421622  35.2536968  34.3085794
  24.3961622  36.1306968  34.6705794  25.5191622  35.2476968  33.6665794
  25.5951622  33.6986968  38.4605794  26.2981622  32.8416968  37.9285794
  25.8231622  35.0016968  38.3275794  25.2031622  35.6706968  38.7645794
  26.9821622  35.5056968  37.5945794  26.9881622  35.0436968  36.6065794
  26.9011622  37.0226968  37.4255794  25.9881622  37.2696968  36.8825794
  26.8391622  37.4876968  38.4105794  28.0861622  37.6196968  36.6875794
  27.9601622  38.7016968  36.6855794  29.0161622  37.4076968  37.2135794
  28.1711622  37.1526968  35.2445794  27.5131622  37.7076968  34.3645794
  28.9821622  36.1296968  34.9945794  29.0801622  35.7896968  34.0515794
  29.5081622  35.7106968  35.7505794  28.2711622  35.1306968  38.3145794
  29.2661622  34.7486968  37.6915794  28.2291622  35.2436968  39.6385794
  27.3871622  35.5846968  40.0815794  29.3671622  34.9466968  40.4945794
  30.2051622  35.5706968  40.1795794  29.0291622  35.3026968  41.9405794
  28.8031622  36.3686968  41.9925794  28.1301622  34.7636968  42.2425794
  30.1281622  35.0026968  42.9135794  31.1751622  35.8916968  43.0875794
  31.2001622  36.8136968  42.5225794  32.1891622  35.6236968  43.9895794
  32.9991622  36.3266968  44.1115794  32.1591622  34.4626968  44.7315794
  32.9471622  34.2496968  45.4385794  31.1171622  33.5696968  44.5705794
  31.0901622  32.6616968  45.1565794  30.1081622  33.8416968  43.6665794
  29.2991622  33.1356968  43.5445794  29.8001622  33.4866968  40.4065794
  30.9891622  33.1986968  40.2975794  28.8421622  32.5656968  40.4575794
  27.8771622  32.8426968  40.5705794  29.1731622  31.1436968  40.4105794
  29.9291622  30.9396968  41.1705794  27.9481622  30.2706968  40.7145794
  28.2711622  29.2296968  40.7545794  27.5631622  30.5386968  41.6995794
  26.8251622  30.3866968  39.6925794  26.4501622  31.3936968  39.7695794
  27.1971622  30.2056968  38.6845794  25.6551622  29.4566968  39.9745794
  25.0411622  29.5106968  41.0425794  25.3361622  28.6016968  39.0065794
  24.5691622  27.9626968  39.1505794  25.8611622  28.5956968  38.1455794
  29.7561622  30.7826968  39.0455794  30.4981622  29.8066968  38.9185794
  29.4261622  31.5786968  38.0305794  28.8091622  32.3626968  38.1825794
  29.9581622  31.3656968  36.6885794  30.0621622  30.2986968  36.5525794
  28.9851622  31.8776968  35.6245794  28.6321622  32.8806968  35.8665794
  29.5721622  31.9416968  34.7105794  27.7991622  30.9496968  35.4005794
  28.1161622  29.9176968  35.5625794  27.0141622  31.1736968  36.1205794
  27.2401622  31.0276968  33.9925794  27.8951622  31.6366968  33.1185794
  26.1421622  30.4756968  33.7605794  31.3191622  32.0276968  36.5145794
  32.1771622  31.5026968  35.8085794  31.5141622  33.1796968  37.1505794
  30.7761622  33.5786968  37.7135794  32.8231622  33.8206968  37.1545794
  33.1401622  33.9836968  36.1255794  32.7741622  35.1596968  37.8935794
  32.1641622  35.0736968  38.7925794  33.7871622  35.4236968  38.1995794
  32.2621622  36.2916968  37.0205794  32.4561622  36.2316968  35.7865794
  31.6751622  37.2476968  37.5705794  33.8611622  32.8976968  37.7955794
  34.9691622  32.7296968  37.2815794  33.4821622  32.2906968  38.9135794
  32.5661622  32.4796968  39.2975794  34.3481622  31.3596968  39.6255794
  35.3231622  31.8196968  39.7695794  33.7541622  31.0196968  41.0065794
  32.6681622  30.9496968  40.9225794  34.2461622  29.6696968  41.5135794
  33.7441622  29.3996968  42.4415794  34.0001622  28.8516968  40.8385794
  35.3171622  29.7136968  41.6905794  34.1051622  32.1316968  41.9955794
  35.1531622  32.4116968  41.8835794  33.4961622  33.0086968  41.7715794
  33.8991622  31.7526968  43.4195794  34.0331622  32.6356968  44.0375794
  32.8891622  31.3686968  43.5665794  34.6361622  31.0176968  43.7425794
  34.5861622  30.0856968  38.8155794  35.6871622  29.5336968  38.8235794
  33.5561622  29.6346968  38.1045794  32.6681622  30.1146968  38.1525794
  33.6851622  28.5146968  37.1735794  33.9601622  27.6216968  37.7365794
  32.3461622  28.2516968  36.4715794  31.9351622  27.3096968  36.8365794
  31.6531622  29.0256968  36.7705794  32.4161622  28.1976968  34.9455794
  33.1371622  28.8406968  34.4545794  32.6151622  27.1766968  34.6175794
  31.1261622  28.7146968  34.3065794  30.3621622  27.9366968  34.3405794
  30.7641622  29.5816968  34.8335794  31.3541622  29.1726968  32.8685794
  32.1301622  29.9386968  32.8605794  31.7011622  28.3216968  32.2795794
  30.1151622  29.7286968  32.2505794  30.3001622  30.0106968  31.2985794
  29.3891622  29.0266968  32.2515794  29.7881622  30.5316968  32.7725794
  34.7871622  28.7766968  36.1465794  35.5401622  27.8696968  35.7965794
  34.8851622  30.0256968  35.6865794  34.2351622  30.7256968  36.0185794
  35.8811622  30.4306968  34.6935794  35.8911622  29.6926968  33.8895794
  35.5391622  31.8146968  34.0805794  35.3701622  32.5206968  34.8855794
  36.6921622  32.3356968  33.2335794  36.3741622  33.2166968  32.6755794
  37.5321622  32.6316968  33.8635794  37.0141622  31.5726968  32.5245794
  34.2641622  31.7346968  33.2565794  33.4621622  31.2736968  33.8185794
  33.9541622  32.7356968  32.9535794  34.4421622  31.1316968  32.3655794
  37.2831622  30.4836968  35.2975794  38.2491622  30.0176968  34.6915794
  37.3841622  31.0526968  36.4955794  36.5591622  31.4266968  36.9445794
  38.6611622  31.1726968  37.1875794  39.3731622  31.6646968  36.5235794
  38.5131622  32.0206968  38.4545794  37.5311622  31.8506968  38.8945794
  39.2581622  31.6966968  39.1835794  38.7381622  33.5096968  38.2305794
  39.7491622  33.6586968  37.8655794  38.0481622  33.8636968  37.4635794
  38.5181622  34.5176968  39.7095794  36.7361622  34.6006968  39.8095794
  36.4401622  34.8536968  40.8285794  36.3701622  35.3676968  39.1275794
  36.3011622  33.6446968  39.5335794  39.2341622  29.8106968  37.5415794
  40.4501622  29.6086968  37.4975794  38.3551622  28.8766968  37.8875794
  37.3661622  29.0816968  37.9005794  38.7931622  27.5426968  38.2785794
  39.6791622  27.6336968  38.9085794  37.7071622  26.8396968  39.1005794
  36.7151622  27.1216968  38.7455794  37.7961622  25.7616968  38.9585794
  37.8391622  27.1086968  40.5945794  38.4231622  26.3146968  41.3335794
  37.3011622  28.2366968  41.0415794  37.3661622  28.4656968  42.0215794
  36.8141622  28.8466968  40.3995794  39.1891622  26.6816968  37.0805794
  40.0311622  25.7936968  37.2065794  38.6001622  26.9456968  35.9185794
  37.8811622  27.6526968  35.8505794  38.9301622  26.1576968  34.7355794
  39.0651622  25.1176968  35.0285794  37.7921622  26.2096968  33.6985794
  37.3351622  27.2006968  33.6945794  38.2071622  26.0336968  32.7055794
  36.7261622  25.1256968  33.9415794  37.0941622  23.9696968  34.2425794
  35.5151622  25.4156968  33.8485794  40.2621622  26.6276968  34.1465794
  40.8771622  25.9326968  33.3325794  40.7211622  27.7956968  34.5855794
  40.1741622  28.3386968  35.2385794  42.0711622  28.2416968  34.2585794
  42.3041622  27.9646968  33.2295794  42.2001622  29.7546968  34.3775794
  41.5231622  30.2356968  33.6695794  41.8841622  30.0506968  35.3775794
  43.6441622  30.1886968  34.1275794  44.3431622  29.3676968  34.1105794
  43.7961622  30.8116968  32.7485794  44.8521622  30.9616968  32.5255794
  43.3651622  30.1576968  31.9905794  43.2831622  31.7686968  32.7625794
  44.1351622  31.1096968  35.2205794  45.2201622  31.1786968  35.1705794
  43.7091622  32.0996968  35.0975794  43.8781622  30.7106968  36.2025794
  43.0841622  27.5666968  35.1805794  44.1611622  27.1546968  34.7445794
  42.7311622  27.4666968  36.4595794  41.8401622  27.8316968  36.7665794
  43.5481622  26.7376968  37.4205794  44.5381622  27.1946968  37.4505794
  42.9401622  26.7836968  38.8385794  41.9301622  26.3826968  38.8065794
  43.7551622  25.9416968  39.7965794  43.4101622  26.1036968  40.8185794
  43.6361622  24.8826968  39.5715794  44.8061622  26.2136968  39.7205794
  42.8551622  28.2166968  39.3345794  42.1851622  28.2566968  40.1935794
  43.8351622  28.5756968  39.6365794  42.4811622  28.8916968  38.5745794
  43.7011622  25.2886968  36.9595794  44.7771622  24.7036968  37.0855794
  42.6281622  24.7236968  36.4065794  41.7601622  25.2386968  36.3425794
  42.6711622  23.3706968  35.8525794  42.9621622  22.6766968  36.6415794
  41.2981622  22.9526968  35.3045794  40.8951622  23.7396968  34.6725794
  41.4271622  22.0616968  34.6885794  40.2961622  22.6056968  36.4075794
  40.7281622  22.3816968  37.5585794  39.0771622  22.5456968  36.1205794
  43.7351622  23.2726968  34.7565794  44.4721622  22.2926968  34.6935794
  43.8241622  24.2966968  33.9105794  43.1851622  25.0746968  33.9995794
  44.8461622  24.3446968  32.8605794  44.7621622  23.4456968  32.2485794
  44.6401622  25.5656968  31.9565794  44.4711622  26.4636968  32.5365794
  45.5661622  25.7236968  31.4005794  43.5301622  25.4226968  30.9265794
  43.7551622  24.5786968  30.2725794  42.5871622  25.2286968  31.4355794
  43.3971622  26.6856968  30.0895794  43.1821622  27.5266968  30.7515794
  44.3391622  26.8756968  29.5735794  42.2841622  26.5676968  29.0645794
  42.5211622  25.7596968  28.3695794  41.3581622  26.3166968  29.5855794
  42.0921622  27.8386968  28.3135794  42.9231622  28.0436968  27.7775794
  41.3001622  27.7446968  27.6925794  41.9181622  28.5906968  28.9655794
  46.2651622  24.3736968  33.4325794  47.1451622  23.6536968  32.9615794
  46.4811622  25.2116968  34.4425794  45.7211622  25.7796968  34.7905794
  47.8051622  25.3736968  35.0345794  48.4971622  25.6756968  34.2455794
  47.7981622  26.4736968  36.1215794  47.0151622  26.2526968  36.8485794
  49.1241622  26.5126968  36.8625794  49.1161622  27.2676968  37.6465794
  49.3161622  25.5716968  37.3745794  49.9361622  26.7136968  36.1625794
  47.5071622  27.8366968  35.4885794  48.2121622  28.0156968  34.6755794
  46.5091622  27.8336968  35.0635794  47.5981622  28.9926968  36.4535794
  47.1831622  29.8796968  35.9755794  47.0251622  28.7706968  37.3545794
  48.6351622  29.2096968  36.7095794  48.3281622  24.0656968  35.6315794
  49.4901622  23.7086968  35.4345794  47.4641622  23.3456968  36.3435794
  46.5141622  23.6716968  36.4605794  47.8591622  22.0926968  36.9795794
  48.8261622  22.2426968  37.4615794  46.8461622  21.6616968  38.0595794
  45.9081622  21.3886968  37.5705794  47.3601622  20.4536968  38.8345794
  48.2731622  20.7116968  39.3725794  46.6101622  20.0956968  39.5395794
  47.5641622  19.6206968  38.1645794  46.5661622  22.8186968  39.0165794
  47.5091622  23.1246968  39.4735794  46.1881622  23.6846968  38.5125794
  45.6131622  22.4606968  40.1355794  45.3131622  23.3696968  40.6555794
  44.7211622  21.9836968  39.7295794  46.0921622  21.8036968  40.8615794
  48.0041622  20.9756968  35.9515794  48.8901622  20.1286968  36.0605794
  47.1281622  20.9766968  34.9545794  46.4161622  21.6926968  34.9035794
  47.1791622  19.9726968  33.8995794  47.1031622  18.9846968  34.3545794
  46.0081622  20.1436968  32.9485794  46.0821622  19.4106968  32.1445794
  45.0721622  19.9806968  33.4825794  46.0051622  21.1446968  32.5165794
  48.4981622  20.0496968  33.1395794  49.2291622  19.0616968  33.0485794
  48.7981622  21.2336968  32.6085794  48.1421622  21.9986968  32.6915794
  50.0371622  21.4786968  31.8715794  50.0421622  20.8546968  30.9765794
  50.1221622  22.9456968  31.4455794  50.0041622  23.5876968  32.3205794
  51.1071622  23.1326968  31.0155794  49.0801622  23.3146968  30.4045794
  48.3671622  22.4096968  29.9175794  48.9681622  24.5156968  30.0805794
  51.2661622  21.1146968  32.6935794  52.3061622  20.7466968  32.1465794
  51.1341622  21.2186968  34.0105794  50.2571622  21.5446968  34.3945794
  52.2251622  20.9236968  34.9225794  53.0971622  21.4106968  34.4905794
  51.9071622  21.4766968  36.3075794  51.5301622  22.4906968  36.1975794
  51.1431622  20.8776968  36.7995794  53.1101622  21.5526968  37.2055794
  52.8551622  22.1326968  38.0905794  53.4031622  20.5516968  37.5255794
  54.2611622  22.1946968  36.4635794  54.7531622  21.4406968  35.8465794
  53.8731622  22.9646968  35.7985794  55.2531622  22.7236968  37.3835794
  55.7511622  22.0686968  37.9665794  55.5551622  24.0106968  37.4745794
  54.9421622  24.8896968  36.6955794  55.1751622  25.8696968  36.7695794
  54.2361622  24.5946968  36.0395794  56.4681622  24.4176968  38.3405794
  56.9061622  23.7726968  38.9795794  56.6951622  25.4006968  38.4005794
  52.5211622  19.4296968  35.0165794  53.6811622  19.0226968  35.0475794
  51.4711622  18.6146968  35.0625794  50.5351622  18.9936968  35.0085794
  51.6321622  17.1646968  35.1395794  52.5051622  16.9326968  35.7515794
  50.4081622  16.5266968  35.8025794  49.5121622  16.8236968  35.2545794
  50.4961622  15.4406968  35.7505794  50.2581622  16.9156968  37.2685794
  51.1361622  16.5676968  37.8145794  50.2111622  18.0016968  37.3545794
  49.0091622  16.3306968  37.9135794  48.1281622  16.7026968  37.3885794
  49.0371622  15.2426968  37.8375794  48.9271622  16.7326968  39.3845794
  49.8021622  16.3376968  39.9025794  48.9461622  17.8216968  39.4555794
  47.6991622  16.2226968  40.0485794  46.8821622  16.6556968  39.6395794
  47.6361622  15.2206968  39.9325794  47.7261622  16.4356968  41.0375794
  51.8781622  16.5596968  33.7575794  51.9341622  15.3406968  33.5985794
  52.0201622  17.4276968  32.7605794  51.9071622  18.4166968  32.9335794
  52.5001622  17.0256968  31.4445794  52.2701622  15.9746968  31.2695794
  51.8341622  17.8436968  30.3455794  52.1251622  17.4536968  29.3695794
  50.7501622  17.7776968  30.4415794  52.1371622  18.8876968  30.4095794
  54.0121622  17.2016968  31.4125794  54.6531622  17.0226968  30.3765794
  54.5541622  17.5816968  32.5675794  53.9511622  17.7676968  33.3535794
  55.9881622  17.7216968  32.8005794  56.1231622  17.9266968  33.8625794
  56.7111622  16.4066968  32.4865794  56.2751622  15.6056968  33.0835794
  56.6141622  16.1526968  31.4325794  58.0921622  16.5016968  32.7805794
  58.4961622  15.6466968  32.6155794  56.6341622  18.8636968  32.0165794
  56.0771622  19.3866968  31.0505794  57.8191622  19.2446968  32.4805794
  58.1981622  18.7626968  33.2835794  58.6691622  20.2336968  31.8425794
  58.7981622  19.9996968  30.7855794  58.2511622  21.2326968  31.9685794
  59.9911622  20.1146968  32.5725794  60.4551622  21.0656968  33.2065794
  60.5961622  18.9306968  32.4485794  60.1701622  18.2516968  31.8355794
  61.6161622  18.4156968  33.3755794  61.5801622  17.3266968  33.3555794
  63.0421622  18.8416968  32.9675794  63.8001622  18.7696968  33.7455794
  63.3531622  18.0696968  32.2625794  63.1931622  20.1306968  32.1685794
  62.4391622  20.1946968  31.3855794  63.0681622  20.9806968  32.8405794
  64.5441622  20.2406968  31.4845794  64.5811622  20.1936968  30.2355794
  65.5641622  20.3676968  32.1945794  61.3051622  18.8396968  34.8115794
  60.1571622  18.7496968  35.2595794  62.3201622  19.2856968  35.5385794
  63.2381622  19.3996968  35.1355794  62.0991622  19.7206968  36.9065794
  61.2301622  19.2086968  37.3225794  63.2881622  19.3666968  37.8005794
  62.9591622  19.4726968  38.8355794  63.5601622  18.3216968  37.6445794
  64.5061622  20.2536968  37.6015794  65.0051622  19.9656968  36.6755794
  64.2381622  21.3056968  37.5285794  65.4891622  20.1456968  38.7525794
  65.9201622  21.1536968  39.3105794  65.8441622  18.9176968  39.1155794
  66.4961622  18.8026968  39.8765794  65.4711622  18.1176968  38.6285794
  61.8451622  21.2206968  36.9465794  62.1881622  21.9456968  36.0105794
  61.2291622  21.6696968  38.0355794  60.9641622  21.0186968  38.7605794
  61.0371622  23.0896968  38.2995794  61.8491622  23.6586968  37.8435794
  59.7051622  23.5906968  37.7275794  58.8891622  23.1816968  38.3205794
  59.6721622  24.6796968  37.7825794  59.5171622  23.1756968  36.3825794
  60.3231622  23.3446968  35.8875794  61.0851622  23.3046968  39.8065794
  60.8181622  22.3786968  40.5685794  61.4481622  24.5086968  40.2395794
  61.7061622  25.2286968  39.5805794  61.3271622  24.8716968  41.6505794
  60.6311622  24.1976968  42.1495794  62.6781622  24.7796968  42.3845794
  63.1561622  23.8396968  42.1055794  63.3461622  25.5826968  42.0675794
  62.5261622  24.7786968  43.9165794  62.1271622  23.7456968  44.4955794
  62.7961622  25.8106968  44.5675794  60.7501622  26.2786968  41.7525794
  61.3761622  27.1826968  42.3065794  59.5571622  26.4636968  41.1955794
  59.0751622  25.6956968  40.7515794  58.8371622  27.7206968  41.3585794
  59.5141622  28.5176968  41.6665794  58.2021622  28.1726968  40.0385794
  57.5751622  29.0486968  40.1745794  59.0081622  28.4586968  39.3605794
  57.3921622  27.0786968  39.3705794  57.0081622  26.1116968  40.0585794
  57.1371622  27.1826968  38.1505794  57.7751622  27.5826968  42.4425794
  57.7631622  26.6066968  43.1925794  56.8841622  28.5626968  42.5075794
  56.9381622  29.3306968  41.8535794  55.8441622  28.6046968  43.5275794
  56.3481622  28.5976968  44.4905794  55.0451622  29.9006968  43.3855794
  55.7661622  30.7176968  43.3065794  54.4881622  29.8736968  42.4565794
  54.0491622  30.2676968  44.4805794  53.2361622  29.5436968  44.4715794
  54.7181622  30.2216968  45.8395794  54.0061622  30.5286968  46.6065794
  55.0461622  29.2116968  46.0815794  55.5651622  30.9056968  45.8575794
  53.4761622  31.6496968  44.2195794  54.2661622  32.4016968  44.2135794
  52.9521622  31.6626968  43.2625794  52.7721622  31.8776968  45.0105794
  54.9091622  27.3896968  43.4685794  54.4741622  26.8886968  44.5005794
  54.6211622  26.9126968  42.2605794  55.0091622  27.3626968  41.4415794
  53.7141622  25.7816968  42.0615794  52.8361622  25.9456968  42.6845794
  53.2471622  25.7296968  40.6035794  52.7901622  26.6826968  40.3805794
  54.1421622  25.6776968  39.9805794  52.3341622  24.5776968  40.1695794
  52.8641622  23.6356968  40.3065794  51.0581622  24.5286968  40.9985794
  50.4211622  23.7166968  40.6485794  51.2881622  24.3486968  42.0475794
  50.5131622  25.4686968  40.9125794  52.0041622  24.6966968  38.6925794
  51.3091622  23.9096968  38.3995794  51.5511622  25.6626968  38.4775794
  52.9061622  24.5976968  38.1065794  54.3421622  24.4436968  42.4485794
  53.6531622  23.5436968  42.9255794  55.6461622  24.3086968  42.2365794
  56.1751622  25.0606968  41.8125794  56.3421622  23.0796968  42.6055794
  55.8371622  22.2366968  42.1305794  57.8021622  23.0796968  42.1555794
  58.3151622  23.9476968  42.5725794  58.4871622  21.8136968  42.6445794
  58.4281622  21.6886968  43.7235794  58.0631622  20.9396968  42.1505794
  59.5481622  21.8586968  42.4445794  57.8661622  23.1396968  40.7255794
  58.7951622  23.0886968  40.4825794  56.3161622  22.8716968  44.1075794
  55.9241622  21.8106968  44.5905794  56.7471622  23.8946968  44.8385794
  57.0621622  24.7396968  44.3805794  56.7171622  23.8616968  46.2925794
  57.3221622  23.0216968  46.6375794  57.3071622  25.1586968  46.8775794
  57.0281622  26.0106968  46.2545794  56.8681622  25.3256968  47.8625794
  58.7981622  25.1316968  47.0595794  59.5551622  24.9346968  48.1685794
  59.2081622  24.7636968  49.1025794  60.8721622  25.0146968  47.7855794
  61.7291622  24.8786968  48.4275794  60.9261622  25.2626968  46.4915794
  61.7691622  25.3226968  45.9315794  59.6941622  25.3346968  46.0275794
  59.4321622  25.5156968  44.9925794  55.2811622  23.6256968  46.7865794
  55.0821622  23.0166968  47.8365794  54.2901622  24.0796968  46.0135794
  54.5071622  24.5896968  45.1685794  52.8721622  23.8576968  46.3385794
  52.6931622  24.1906968  47.3625794  51.9551622  24.6586968  45.4055794
  52.2981622  24.6356968  44.3895794  50.9711622  24.1856968  45.4135794
  51.7231622  26.1126968  45.7805794  51.3211622  26.1386968  46.7925794
  52.6451622  26.6736968  45.7915794  50.5071622  26.9066968  44.7025794
  50.6601622  28.6106968  45.2205794  49.6871622  28.9536968  45.5565794
  51.3871622  28.7036968  46.0275794  50.9721622  29.2186968  44.3715794
  52.4611622  22.3916968  46.2555794  51.6391622  21.9236968  47.0395794
  53.0191622  21.6796968  45.2835794  53.6761622  22.1206968  44.6555794
  52.6081622  20.3086968  45.0025794  51.5601622  20.1846968  45.2775794
  52.7361622  20.0226968  43.5025794  53.7601622  20.2666968  43.2205794
  52.6121622  18.9506968  43.3365794  51.7971622  20.7676968  42.5515794
  51.7231622  21.8096968  42.8585794  52.3351622  20.7366968  41.1305794
  51.6551622  21.2736968  40.4675794  53.3101622  21.2246968  41.0905794
  52.4331622  19.7066968  40.7855794  50.4051622  20.1636968  42.6045794
  49.7411622  20.7126968  41.9375794  50.4341622  19.1166968  42.3015794
  50.0031622  20.2326968  43.6155794  53.4061622  19.2646968  45.7845794
  52.8901622  18.1876968  46.0925794  54.6591622  19.5836968  46.1045794
  55.0241622  20.4846968  45.8305794  55.5791622  18.5966968  46.6645794
  55.0761622  17.6336968  46.7495794  56.7621622  18.3966968  45.7185794
  57.3891622  19.2896968  45.7335794  57.3661622  17.5596968  46.0695794
  56.3281622  18.1176968  44.2955794  56.0761622  16.9716968  43.9225794
  56.2401622  19.1686968  43.4895794  55.9581622  19.0326968  42.5305794
  56.4401622  20.0926968  43.8435794  56.1081622  18.9386968  48.0535794
  56.6561622  18.0786968  48.7425794  55.9591622  20.1936968  48.4605794
  55.4831622  20.8656968  47.8755794  56.4321622  20.6186968  49.7655794
  57.4621622  20.2836968  49.8985794  56.4321622  21.7076968  49.8065794
  55.5811622  20.0966968  50.9095794  54.3771622  19.8856968  50.7555794
  56.2111622  19.8826968  52.0615794  57.2011622  20.0676968  52.1385794
  55.4961622  19.4576968  53.2625794  54.4221622  19.5036968  53.0905794
  55.8481622  18.0126968  53.6275794  56.8791622  17.9696968  53.9835794
  55.1961622  17.7156968  54.4505794  55.6901622  17.0246968  52.4835794
  54.7461622  17.2276968  51.9785794  56.5041622  17.1496968  51.7685794
  55.6671622  15.5876968  52.9815794  56.6271622  15.3336968  53.4335794
  54.8831622  15.4956968  53.7285794  55.3521622  14.6186968  51.8505794
  54.4621622  14.9796968  51.3315794  56.1821622  14.6016968  51.1425794
  55.0811622  13.2416968  52.3535794  54.7171622  12.6656968  51.6065794
  55.9361622  12.8316968  52.7045794  54.4041622  13.2866968  53.1045794
  55.8091622  20.3876968  54.4325794  56.9231622  20.8916968  54.5535794
  54.8151622  20.6186968  55.2825794  53.9171622  20.1896968  55.1375794
  54.9931622  21.4606968  56.4585794  55.4261622  22.4006968  56.1275794
  53.6331622  21.8236968  57.0675794  53.0721622  22.4026968  56.3335794
  53.0811622  20.9096968  57.2735794  53.7561622  22.6476968  58.3415794
  54.7511622  23.3896968  58.4865794  52.8471622  22.5596968  59.1965794
  55.8681622  20.7466968  57.4825794  55.4991622  19.6866968  57.9785794
  57.0401622  21.3226968  57.7905794  57.5871622  22.5476968  57.1795794
  57.1041622  23.4206968  57.6165794  57.5141622  22.5756968  56.0965794
  59.0331622  22.5206968  57.5885794  59.4421622  23.5276968  57.6745794
  59.6031622  21.9476968  56.8555794  59.0541622  21.8056968  58.8985794
  58.7941622  22.5106968  59.6905794  60.0301622  21.3616968  59.0975794
  57.9681622  20.7326968  58.7625794  58.3951622  19.8206968  58.3445794
  57.3131622  20.4406968  60.1175794  57.6351622  19.4316968  60.7495794
  56.3941622  21.3026968  60.5415794  56.1451622  22.0996968  59.9705794
  55.7421622  21.1536968  61.8395794  56.5141622  21.0246968  62.5995794
  54.9421622  22.4126968  62.1845794  54.1441622  22.5526968  61.4575794
  54.4921622  22.2396968  63.1625794  55.7771622  23.6826968  62.2485794
  56.6491622  23.5006968  62.8785794  56.1241622  23.9386968  61.2465794
  55.0101622  24.8596968  62.8245794  53.9141622  24.6416968  63.3865794
  55.5071622  26.0026968  62.7235794  54.8241622  19.9346968  61.8965794
  54.6551622  19.3306968  62.9545794  54.2351622  19.5756968  60.7605794
  54.4181622  20.0926968  59.9125794  53.2511622  18.4986968  60.7235794
  53.1701622  18.0276968  61.7025794  51.8491622  19.0376968  60.3615794
  51.1201622  18.2346968  60.4725794  51.4641622  20.1916968  61.2805794
  50.4411622  20.4986968  61.0595794  51.5111622  19.8626968  62.3195794
  52.1201622  21.0496968  61.1485794  51.8391622  19.4876968  58.9995794
  52.3001622  20.3316968  58.9685794  53.6171622  17.3896968  59.7375794
  52.9991622  16.3236968  59.7395794  54.6141622  17.6416968  58.8925794
  55.1951622  18.4406968  59.0715794  55.0461622  16.6626968  57.9095794
  55.9571622  17.0306968  57.4375794  55.2681622  15.7216968  58.4125794
  54.0101622  16.4156968  56.8285794  54.0851622  15.4306968  56.0905794
  53.0401622  17.3186968  56.7325794  53.0191622  18.1066968  57.3665794
  51.9331622  17.1596968  55.7965794  51.9231622  16.1266968  55.4595794
  50.5971622  17.3796968  56.5115794  50.6021622  18.3996968  56.8785794
  49.7801622  17.2596968  55.7985794  50.3601622  16.4676968  57.7025794
  50.2271622  15.4436968  57.3505794  51.2091622  16.4996968  58.3535794
  49.1531622  16.8876968  58.5145794  48.4181622  17.7866968  58.0565794
  48.9461622  16.3306968  59.6135794  52.0441622  18.1166968  54.6145794
  52.4481622  19.2696968  54.7785794  51.6811622  17.6346968  53.4155794
  51.3201622  16.2336968  53.1315794  50.4561622  15.9126968  53.7145794
  52.1801622  15.5866968  53.3105794  50.9861622  16.2496968  51.6535794
  49.9081622  16.3696968  51.5315794  51.3091622  15.3306968  51.1645794
  51.6811622  17.4416968  51.0835794  51.2021622  17.7886968  50.1675794
  52.7231622  17.1926968  50.8825794  51.6081622  18.4646968  52.2125794
  52.4421622  19.1586968  52.1525794  50.2951622  19.2306968  52.1755794
  49.4551622  19.0346968  53.0515794  50.1101622  20.0856968  51.1785794
  50.8111622  20.2086968  50.4625794  48.8751622  20.8486968  51.0915794
  48.5941622  21.1616968  52.0935794  49.0561622  22.0816968  50.2005794
  49.6241622  21.8026968  49.3115794  48.0621622  22.3916968  49.8715794
  49.7031622  23.3086968  50.8505794  50.7561622  23.0896968  50.9925794
  49.6171622  24.5296968  49.9415794  50.1281622  25.3756968  50.4015794
  50.0931622  24.3086968  48.9855794  48.5721622  24.7886968  49.7685794
  49.0691622  23.6006968  52.2025794  49.3811622  24.5786968  52.5575794
  47.9821622  23.5726968  52.1345794  49.4091622  22.8786968  52.9435794
  47.7171622  19.9956968  50.5805794  47.8541622  19.2326968  49.6205794
  46.5861622  20.1276968  51.2685794  46.5711622  20.7626968  52.0515794
  45.3001622  19.5706968  50.8605794  45.3371622  18.4886968  50.9905794
  44.2141622  20.1376968  51.7865794  44.4671622  19.8886968  52.8185794
  44.1961622  21.2206968  51.6975794  42.8331622  19.5996968  51.4935794
  42.7071622  18.6146968  50.7345794  41.8641622  20.1736968  52.0405794
  45.0081622  19.8836968  49.3845794  45.3621622  20.9556968  48.8955794
  44.3871622  18.9466968  48.6715794  44.0711622  18.0976968  49.1195794
  44.0251622  19.1776968  47.2695794  44.9361622  19.4216968  46.7295794
  43.3321622  17.9516968  46.6745794  42.8821622  17.3506968  47.4665794
  42.5291622  18.2736968  46.0095794  44.2671622  17.0986968  45.8515794
  45.3871622  17.5646968  45.5575794  43.8771622  15.9676968  45.4905794
  43.1171622  20.3906968  47.1105794  43.2911622  21.1936968  46.1955794
  42.1401622  20.5066968  48.0045794  42.0521622  19.8146968  48.7385794
  41.2091622  21.6296968  48.0025794  40.7191622  21.6736968  47.0295794
  40.1311622  21.4246968  49.0775794  39.6621622  20.4526968  48.9175794
  40.6201622  21.4146968  50.0515794  39.0371622  22.4886968  49.1015794
  39.4961622  23.4686968  49.1955794  38.4831622  22.4546968  48.1615794
  38.0671622  22.3206968  50.2655794  38.1401622  21.2866968  50.9665794
  37.2391622  23.2346968  50.4855794  41.9521622  22.9476968  48.2285794
  41.5361622  24.0036968  47.7465794  43.0681622  22.8716968  48.9485794
  43.3821622  21.9736968  49.2905794  43.8081622  24.0616968  49.3485794
  43.0941622  24.8746968  49.4895794  44.4851622  23.8176968  50.6995794
  43.7391622  23.4376968  51.3985794  45.2701622  23.0696968  50.5895794
  45.0821622  25.0786968  51.2915794  46.2941622  25.2846968  51.2395794
  44.2341622  25.9306968  51.8595794  43.2441622  25.7206968  51.8965794
  44.5721622  26.7816968  52.2815794  44.8441622  24.5246968  48.3145794
  45.0671622  25.7246968  48.1695794  45.4691622  23.5906968  47.5965794
  45.2701622  22.6106968  47.7515794  46.4211622  23.9696968  46.5525794
  47.2081622  24.5686968  47.0125794  47.0981622  22.7376968  45.8535794
  47.8331622  23.1236968  45.1445794  47.8391622  21.8636968  46.8585794
  48.1731622  20.9186968  46.4335794  48.7341622  22.4016968  47.1745794
  47.2451622  21.6686968  47.7385794  46.0851622  21.9076968  45.0585794
  45.4541622  21.4446968  45.7865794  45.5141622  22.5136968  44.3605794
  46.7021622  20.7736968  44.2515794  45.9491622  20.3786968  43.5685794
  47.5431622  21.1446968  43.6665794  47.0251622  19.9566968  44.8965794
  45.7161622  24.8306968  45.5015794  46.3181622  25.7346968  44.9235794
  44.4321622  24.5656968  45.2775794  43.9781622  23.8156968  45.7835794
  43.6651622  25.3056968  44.2855794  44.2551622  25.3906968  43.3715794
  42.3641622  24.5726968  43.9485794  41.7581622  24.4766968  44.8515794
  41.8221622  25.2106968  43.2505794  42.5661622  23.1906968  43.3435794
  43.2841622  23.2576968  42.5245794  42.9621622  22.5116968  44.0935794
  41.2571622  22.6316968  42.8065794  41.4231622  21.6276968  42.4145794
  40.5511622  22.5466968  43.6335794  40.6761622  23.5036968  41.7885794
  40.0311622  24.2166968  42.0975794  40.9251622  23.4056968  40.4845794
  41.7421622  22.4636968  40.0265794  41.8431622  22.3536968  39.0255794
  42.1571622  21.8016968  40.6615794  40.3521622  24.2466968  39.6355794
  40.4711622  24.1046968  38.6395794  39.7141622  24.9506968  39.9735794
  43.3641622  26.7106968  44.7815794  43.3741622  27.6676968  44.0085794
  43.1011622  26.8266968  46.0795794  43.0851622  26.0026968  46.6645794
  42.8231622  28.1176968  46.6955794  42.0851622  28.6366968  46.0915794
  42.3091622  27.9316968  48.1265794  42.9201622  27.1796968  48.6255794
  42.4591622  28.8476968  48.6855794  40.8521622  27.5226968  48.2195794
  39.9001622  28.0646968  47.3645794  40.1621622  28.8216968  46.6445794
  38.5671622  27.6926968  47.4475794  37.8371622  28.1326968  46.7835794
  38.1731622  26.7666968  48.3955794  36.8491622  26.3906968  48.4855794
  36.7071622  25.7156968  49.1555794  39.1011622  26.2156968  49.2565794
  38.7921622  25.5026968  50.0075794  40.4301622  26.5926968  49.1645794
  41.1471622  26.1576968  49.8445794  44.0631622  29.0056968  46.6925794
  43.9561622  30.2266968  46.5825794  45.2381622  28.3896968  46.8055794
  45.2721622  27.3846968  46.9185794  46.4921622  29.1396968  46.8275794
  46.3541622  30.0116968  47.4605794  47.6331622  28.2876968  47.3945794
  47.8031622  27.4416968  46.7265794  48.5441622  28.8856968  47.4155794
  47.3931622  27.7396968  48.7995794  46.4681622  27.2276968  48.8715794
  48.1981622  27.0506968  49.0535794  47.3071622  28.8146968  49.8715794
  47.4151622  30.0056968  49.5915794  47.1211622  28.3896968  51.1135794
  47.0161622  27.3996968  51.2975794  47.0641622  29.0536968  51.8695794
  46.8611622  29.6446968  45.4385794  47.3971622  30.7406968  45.2955794
  46.5701622  28.8476968  44.4145794  46.1571622  27.9386968  44.5755794
  46.8031622  29.2836968  43.0425794  47.8521622  29.5656968  42.9415794
  46.4991622  28.1786968  42.0205794  45.4521622  27.8876968  42.1235794
  46.7321622  28.6936968  40.6125794  46.7011622  29.7736968  40.5165794
  47.7071622  28.3786968  40.2365794  45.9801622  28.2776968  39.9455794
  47.3811622  26.9566968  42.2785794  48.4051622  27.2276968  42.0385794
  47.4451622  26.6896968  43.3075794  47.0541622  25.7696968  41.4025794
  47.7441622  24.9556968  41.6295794  46.0391622  25.4346968  41.6125794
  47.1521622  26.0196968  40.3455794  45.9431622  30.5046968  42.7395794
  46.4521622  31.5276968  42.2805794  44.6451622  30.3986968  43.0045794
  44.2701622  29.5336968  43.3695794  43.7521622  31.5416968  42.8595794
  43.7051622  31.8106968  41.8035794  42.3291622  31.2236968  43.3505794
  42.3781622  30.8886968  44.3875794  41.4561622  32.4686968  43.2905794
  40.4561622  32.2526968  43.6575794  41.8411622  33.2556968  43.9375794
  41.3931622  32.8416968  42.2675794  41.7081622  30.1116968  42.5095794
  41.6521622  30.4376968  41.4695794  42.3311622  29.2266968  42.5315794
  40.3141622  29.7296968  42.9615794  40.0261622  28.7996968  42.4695794
  40.2961622  29.5716968  44.0405794  39.5881622  30.4936968  42.6825794
  44.2901622  32.7406968  43.6345794  44.3821622  33.8436968  43.0945794
  44.6621622  32.5076968  44.8915794  44.5661622  31.5796968  45.2775794
  45.1881622  33.5596968  45.7555794  44.3941622  34.2866968  45.9325794
  45.6541622  33.0026968  47.1225794  46.3631622  32.1916968  46.9825794
  46.3211622  34.0866968  47.9425794  46.4701622  33.7226968  48.9595794
  47.2981622  34.3406968  47.5305794  45.6891622  34.9746968  47.9635794
  44.5261622  32.5126968  47.8535794  44.1911622  31.7216968  47.4075794
  46.3561622  34.2826968  45.0975794  46.3231622  35.4966968  44.9205794
  47.3741622  33.5246968  44.7085794  47.3421622  32.5256968  44.8415794
  48.5871622  34.1136968  44.1615794  48.8981622  34.9276968  44.8185794
  49.7021622  33.0696968  44.1525794  49.3001622  32.1206968  43.8005794
  50.4781622  33.3796968  43.4505794  50.3461622  32.8836968  45.4945794
  49.9901622  31.8296968  46.3165794  49.4141622  31.0256968  45.9575794
  50.5741622  31.6756968  47.5515794  50.2891622  30.8416968  48.1715794
  51.5181622  32.5846968  47.9865794  52.0101622  32.4656968  48.9415794
  51.8721622  33.6416968  47.1825794  52.5931622  34.3656968  47.5305794
  51.2831622  33.7856968  45.9485794  51.5621622  34.6236968  45.3255794
  48.4081622  34.7206968  42.7645794  49.1011622  35.6756968  42.4145794
  47.4811622  34.1876968  41.9745794  46.9301622  33.4016968  42.2895794
  47.1991622  34.7716968  40.6675794  48.1381622  34.9266968  40.1395794
  46.2871622  33.8596968  39.8425794  45.4631622  33.5196968  40.4725794
  45.8501622  34.4636968  39.0445794  46.9471622  32.6466968  39.1805794
  47.3521622  31.9996968  39.9545794  45.9291622  31.8446968  38.3855794
  46.3971622  30.9486968  37.9885794  45.1061622  31.5466968  39.0365794
  45.5361622  32.4466968  37.5655794  48.1121622  33.0726968  38.2955794
  48.4681622  32.2206968  37.7155794  47.8001622  33.8646968  37.6135794
  48.9461622  33.4236968  38.9005794  46.5641622  36.1506968  40.8255794
  46.8701622  37.0746968  40.0775794  45.6801622  36.2816968  41.8095794
  45.4591622  35.4866968  42.3955794  45.0141622  37.5496968  42.0815794
  44.7871622  38.0446968  41.1355794  43.6781622  37.3386968  42.8365794
  43.8741622  36.7686968  43.7465794  43.0611622  38.6676968  43.2435794
  42.1681622  38.5156968  43.8465794  43.7341622  39.2526968  43.8675794
  42.8051622  39.2526968  42.3605794  42.6961622  36.5336968  41.9835794
  42.5581622  36.9966968  41.0175794  43.1161622  35.5506968  41.7875794
  41.3451622  36.3236968  42.6475794  40.7691622  35.6066968  42.0625794
  41.4801622  35.9246968  43.6535794  40.7801622  37.2536968  42.6925794
  45.9151622  38.4716968  42.8945794  46.3091622  39.5406968  42.4215794
  46.2421622  38.0466968  44.1145794  45.8761622  37.1666968  44.4415794
  47.0231622  38.8566968  45.0525794  46.4551622  39.7616968  45.2695794
  47.2331622  38.1006968  46.3585794  47.7231622  38.7506968  47.0835794
  46.2711622  37.7836968  46.7615794  47.8621622  37.2266968  46.1895794
  48.3671622  39.2686968  44.4755794  48.9001622  40.3266968  44.8135794
  48.9041622  38.4296968  43.5965794  48.4211622  37.5776968  43.3455794
  50.2041622  38.6736968  43.0085794  50.8731622  39.0446968  43.7855794
  50.6051622  37.7186968  42.6735794  50.2731622  39.6366968  41.8345794
  51.3351622  39.7536968  41.2275794  49.1801622  40.3276968  41.5025794
  48.3111622  40.1926968  42.0015794  49.2301622  41.2506968  40.3665794
  50.2451622  41.6416968  40.2935794  48.9441622  40.4826968  39.0615794
  49.5431622  40.9226968  38.2815794  49.2551622  39.4406968  39.1505794
  47.5181622  40.5476968  38.5995794  46.5961622  39.5676968  38.8955794
  46.7841622  38.7406968  39.4405794  45.4331622  39.8796968  38.3495794
  44.5401622  39.2766968  38.3865794  45.5711622  41.0196968  37.6995794
  46.8691622  41.4556968  37.8315794  47.2901622  42.3546968  37.4065794
  48.3211622  42.4866968  40.4305794  48.6501622  43.5046968  39.8215794
  47.1971622  42.4286968  41.1425794  46.9251622  41.5756968  41.6115794
  46.2521622  43.5496968  41.0775794  46.0861622  43.7966968  40.0275794
  44.8761622  43.2026968  41.7005794  44.2611622  44.1036968  41.7085794
  44.1571622  42.1666968  40.8525794  43.1611622  41.9856968  41.2575794
  44.0581622  42.5296968  39.8295794  44.7101622  41.2266968  40.8475794
  45.0321622  42.7196968  43.1335794  45.4431622  43.5036968  43.7605794
  44.0541622  42.4516968  43.5345794  45.6761622  41.8466968  43.1935794
  46.7971622  44.7996968  41.7575794  46.5331622  45.9226968  41.3185794
  47.5691622  44.5936968  42.8175794  47.7401622  43.6506968  43.1375794
  48.1011622  45.6916968  43.6145794  47.3851622  46.5146968  43.6155794
  48.3391622  45.2496968  45.0755794  49.0751622  45.9056968  45.5405794
  47.0471622  45.3246968  45.8805794  46.4171622  44.4586968  45.6755794
  47.3121622  45.3276968  46.9325794  46.5011622  46.2396968  45.6495794
  48.8191622  43.8976968  45.0895794  49.7261622  43.8916968  44.7835794
  49.4001622  46.2306968  43.0255794  49.7561622  47.3876968  43.2485794
  50.1001622  45.3826968  42.2745794  49.7501622  44.4486968  42.1205794
  51.3491622  45.7626968  41.6245794  51.9451622  46.3416968  42.3325794
  52.1671622  44.5276968  41.2175794  51.6141622  43.9436968  40.4805794
  53.5011622  44.9396968  40.6405794  54.1031622  44.0506968  40.4515794
  53.3741622  45.4696968  39.6975794  54.0351622  45.5806968  41.3435794
  52.4001622  43.7146968  42.3715794  52.7931622  42.8866968  42.0815794
  51.0911622  46.6306968  40.3895794  51.7591622  47.6486968  40.1925794
  50.1221622  46.2326968  39.5645794  49.5981622  45.3886968  39.7565794
  49.7341622  47.0446968  38.4175794  50.6251622  47.2626968  37.8285794
  48.7361622  46.3116968  37.5195794  48.6591622  46.8386968  36.5705794
  49.0781622  45.3036968  37.3345794  47.4521622  46.2826968  38.1105794
  46.8811622  45.7366968  37.5675794  49.1331622  48.3486968  38.9005794
  49.2851622  49.3886968  38.2605794  48.4411622  48.2866968  40.0315794
  48.2951622  47.3966968  40.4875794  47.8851622  49.4796968  40.6405794
  47.2041622  49.9686968  39.9425794  47.3311622  49.1936968  41.5325794
  49.0091622  50.4246968  41.0065794  48.9451622  51.6186968  40.7145794
  50.0471622  49.8726968  41.6325794  50.0221622  48.8866968  41.8525794
  51.2221622  50.6306968  42.0475794  50.8981622  51.4256968  42.7215794
  52.1881622  49.7226968  42.8105794  51.7361622  49.5026968  43.7785794
  52.2701622  48.7756968  42.2865794  53.6141622  50.2266968  43.0385794
  54.1041622  50.3606968  42.0735794  53.6171622  51.5626968  43.7685794
  54.5911622  51.7366968  44.2235794  53.4331622  52.3766968  43.0745794
  52.8331622  51.5806968  44.5215794  54.4321622  49.1886968  43.8035794
  55.4561622  49.5396968  43.9355794  53.9851622  49.0106968  44.7805794
  54.4551622  48.2526968  43.2445794  51.9401622  51.2816968  40.8655794
  52.2791622  52.4646968  40.9145794  52.1711622  50.5046968  39.8105794
  51.8871622  49.5356968  39.8345794  52.8361622  51.0046968  38.6095794
  53.7721622  51.4746968  38.9085794  53.1341622  49.8476968  37.6535794
  52.2631622  49.1906968  37.6225794  53.2631622  50.2536968  36.6505794
  54.3831622  49.0296968  37.9945794  54.3651622  48.7816968  39.0575794
  54.4051622  47.7246968  37.2225794  54.4431622  47.9246968  36.1505794
  55.2771622  47.1346968  37.5065794  53.5071622  47.1466968  37.4475794
  55.6331622  49.8456968  37.7095794  56.5161622  49.2236968  37.8405794
  55.6211622  50.2146968  36.6825794  55.7101622  50.6886968  38.3955794
  52.0101622  52.0756968  37.8975794  52.5601622  53.0416968  37.3665794
  50.6911622  51.9096968  37.8925794  50.2771622  51.1046968  38.3405794
  49.8111622  52.8966968  37.2725794  50.1931622  53.1326968  36.2785794
  48.4001622  52.3346968  37.1115794  47.9931622  52.0666968  38.0865794
  47.7661622  53.0956968  36.6565794  48.4051622  51.1926968  36.2745794
  48.8001622  50.4626968  36.7655794  49.7761622  54.1886968  38.0855794
  49.7281622  55.2806968  37.5215794  49.8041622  54.0646968  39.4085794
  49.8311622  53.1486968  39.8365794  49.8671622  55.2396968  40.2725794
  49.1271622  55.9646968  39.9315794  49.5511622  54.8696968  41.7255794
  49.9731622  53.8916968  41.9605794  50.0411622  55.5906968  42.3825794
  48.0851622  54.9106968  42.0615794  47.3721622  56.0936968  41.9735794
  47.8701622  57.0006968  41.6615794  46.0261622  56.1346968  42.2855794
  45.4871622  57.0666968  42.2265794  45.3831622  54.9916968  42.6975794
  44.3381622  55.0196968  42.9605794  46.0841622  53.8076968  42.7965794
  45.5911622  52.9116968  43.1385794  47.4271622  53.7696968  42.4805794
  47.9641622  52.8426968  42.5925794  51.2371622  55.9166968  40.1895794
  51.3361622  57.1446968  40.2595794  52.2901622  55.1176968  40.0395794
  52.1631622  54.1166968  39.9965794  53.6471622  55.6556968  39.9535794
  53.8111622  56.3256968  40.7985794  54.6731622  54.5386968  40.0365794
  55.6781622  54.9576968  39.9755794  54.5661622  54.0196968  40.9895794
  54.5311622  53.8266968  39.2225794  53.8341622  56.4536968  38.6675794
  54.3231622  57.5856968  38.6905794  53.4351622  55.8616968  37.5475794
  53.0451622  54.9296968  37.5785794  53.5471622  56.5326968  36.2625794
  54.5881622  56.8336968  36.1425794  53.1671622  55.5856968  35.1265794
  53.7681622  54.6816968  35.2305794  52.1221622  55.2946968  35.2535794
  53.3531622  56.1236968  33.7075794  52.7011622  56.9856968  33.5595794
  54.7891622  56.5706968  33.4905794  54.9561622  56.8016968  32.4375794
  54.9891622  57.4786968  34.0585794  55.4861622  55.7946968  33.8005794
  52.9561622  55.0696968  32.6835794  53.4971622  54.1406968  32.8485794
  51.8911622  54.8786968  32.7645794  53.1591622  55.4326968  31.6755794
  52.6731622  57.7846968  36.2325794  53.0481622  58.7896968  35.6345794
  51.5151622  57.7256968  36.8855794  51.2351622  56.8716968  37.3475794
  50.6411622  58.8916968  36.9845794  50.3641622  59.2236968  35.9895794
  49.3591622  58.5556968  37.7545794  48.6971622  57.9766968  37.1105794
  49.6021622  57.9276968  38.6085794  48.6121622  59.7786968  38.2655794
  47.7531622  60.4916968  37.4375794  47.6381622  60.1766968  36.4115794
  47.0721622  61.6076968  37.8985794  46.4061622  62.1606968  37.2525794
  47.2481622  62.0246968  39.2045794  46.5731622  63.1336968  39.6685794
  46.7791622  63.3416968  40.5845794  48.0951622  61.3356968  40.0465794
  48.2221622  61.6626968  41.0645794  48.7691622  60.2196968  39.5765794
  49.4141622  59.6756968  40.2515794  51.3471622  60.0616968  37.6565794
  51.3531622  61.1736968  37.1315794  51.9361622  59.8106968  38.8205794
  51.9051622  58.8806968  39.2165794  52.5631622  60.8816968  39.5865794
  51.8451622  61.6946968  39.6735794  52.9551622  60.3826968  40.9795794
  53.3961622  59.3866968  40.9035794  53.7201622  61.0496968  41.3785794
  51.8171622  60.3856968  41.9645794  51.0061622  61.5006968  42.1045794
  51.2081622  62.4016968  41.5455794  49.9561622  61.5066968  43.0085794
  49.3451622  62.3896968  43.1225794  49.7001622  60.3876968  43.7735794
  48.8921622  60.4006968  44.4895794  50.4971622  59.2676968  43.6405794
  50.3071622  58.3936968  44.2475794  51.5471622  59.2676968  42.7375794
  52.1611622  58.3836968  42.6415794  53.7761622  61.4576968  38.8665794
  54.0801622  62.6396968  39.0105794  54.4551622  60.6256968  38.0815794
  54.1691622  59.6586968  38.0035794  55.6501622  61.0606968  37.3655794
  56.3101622  61.5696968  38.0675794  56.3881622  59.8626968  36.7595794
  55.6751622  59.2576968  36.1985794  57.1041622  60.2476968  36.0375794
  57.1591622  58.9456968  37.7165794  56.4721622  58.4126968  38.3555794
  57.9621622  57.9126968  36.9445794  58.4471622  57.2246968  37.6365794
  57.2991622  57.3456968  36.2905794  58.7261622  58.4076968  36.3455794
  58.0691622  59.7456968  38.6315794  58.7961622  59.0956968  39.1165794
  58.6031622  60.5036968  38.0655794  57.4751622  60.2276968  39.4085794
  55.3171622  62.0716968  36.2755794  56.0591622  63.0286968  36.0705794
  54.2041622  61.8736968  35.5755794  53.6181622  61.0686968  35.7555794
  53.8461622  62.7876968  34.4925794  54.7551622  63.0806968  33.9645794
  52.9071622  62.1256968  33.4555794  52.8481622  62.7876968  32.5905794
  53.4751622  60.7926968  32.9895794  54.5421622  60.8896968  32.7825794
  53.3231622  60.0136968  33.7145794  52.9751622  60.4976968  32.0665794
  51.5051622  61.9586968  34.0195794  51.5041622  61.1926968  34.7875794
  51.0721622  62.8896968  34.3835794  50.8581622  61.6006968  33.2175794
  53.1831622  64.0576968  35.0255794  52.9991622  65.0226968  34.2855794
  52.8321622  64.0496968  36.3095794  52.9761622  63.2156968  36.8615794
  52.2541622  65.2206968  36.9655794  51.8461622  65.9016968  36.2205794
  51.1391622  64.8106968  37.9335794  51.5351622  64.0676968  38.6275794
  50.8381622  65.6786968  38.5215794  49.8981622  64.2346968  37.2715794
  50.1651622  63.3786968  36.6545794  49.2161622  63.8966968  38.0525794
  49.1891622  65.2666968  36.4105794  48.9351622  66.1396968  37.0125794
  49.8391622  65.5716968  35.5915794  47.9181622  64.6926968  35.7995794
  48.1711622  63.7606968  35.2915794  47.1961622  64.4736968  36.5885794
  47.3071622  65.6196968  34.7995794  48.0071622  65.9306968  34.1425794
  46.5751622  65.1416968  34.2925794  46.9161622  66.4266968  35.2615794
  53.3281622  66.0036968  37.7125794  53.0961622  67.1276968  38.1615794
  54.4981622  65.3876968  37.8525794  54.6131622  64.4546968  37.4835794
  55.6521622  66.0166968  38.4855794  55.5031622  67.0956968  38.5485794
  55.8431622  65.5066968  39.9215794  56.1041622  64.4476968  39.9065794
  56.6611622  66.0556968  40.3885794  54.5941622  65.6716968  40.7855794
  54.4211622  66.6896968  41.4575794  53.7361622  64.6556968  40.7925794
  53.9401622  63.8236968  40.2685794  52.9111622  64.7156968  41.3675794
  56.9051622  65.7416968  37.6575794  57.7331622  64.9176968  38.0415794
  57.0441622  66.4286968  36.5115794  56.1561622  67.5166968  36.0705794
  56.4741622  68.4576968  36.5215794  55.1041622  67.3296968  36.2665794
  56.3801622  67.5476968  34.5915794  56.1701622  68.5336968  34.1765794
  55.7441622  66.7986968  34.1155794  57.8101622  67.1686968  34.4125794
  58.4321622  68.0526968  34.5665794  57.9921622  66.7536968  33.4205794
  58.0791622  66.1306968  35.5095794  57.8821622  65.1426968  35.1045794
  59.5161622  66.2556968  36.0205794  60.4021622  65.5666968  35.5165794
  59.7481622  67.1206968  36.9995794  58.9951622  67.6736968  37.3805794
  61.0881622  67.2656968  37.5515794  61.8101622  67.3246968  36.7345794
  61.1931622  68.5496968  38.3815794  60.3101622  68.6556968  39.0145794
  62.0601622  68.4656968  39.0395794  61.3911622  69.7856968  37.5535794
  60.5811622  70.8956968  37.6635794  59.8041622  70.9916968  38.3035794
  60.9911622  71.8236968  36.8165794  60.5501622  72.8046968  36.6905794
  62.0421622  71.3596968  36.1645794  62.5691622  71.8576968  35.4585794
  62.3121622  70.0856968  36.6065794  63.1141622  69.4436968  36.2695794
  61.4421622  66.0306968  38.3775794  62.6131622  65.6736968  38.5125794
  60.4191622  65.3726968  38.9145794  59.4771622  65.7076968  38.7775794
  60.5931622  64.0926968  39.5965794  61.4681622  64.1456968  40.2475794
  59.3621622  63.7426968  40.4605794  58.4661622  63.6936968  39.8585794
  59.5031622  62.3536968  41.0745794  58.8391622  62.2836968  41.9265794
  59.2431622  61.5876968  40.3475794  60.5191622  62.1886968  41.4075794
  59.1461622  64.8016968  41.5335794  58.2681622  64.5516968  42.1295794
  60.0141622  64.8466968  42.1915794  58.9871622  65.7806968  41.0845794
  60.8281622  62.9946968  38.5625794  61.6361622  62.0826968  38.7595794
  60.1091622  63.1046968  37.4515794  59.4401622  63.8566968  37.3675794
  60.2401622  62.1836968  36.3365794  60.1051622  61.1636968  36.6945794
  59.1551622  62.4836968  35.2945794  58.2351622  62.1606968  35.7615794
  59.1011622  63.5506968  35.1655794  59.1891622  61.8936968  33.8825794
  59.9821622  62.3876968  33.3195794  59.4711622  60.4116968  33.8995794
  58.6211622  59.8746968  34.3185794  59.6211622  60.0686968  32.8755794
  60.3501622  60.1486968  34.4715794  57.8561622  62.1596968  33.1965794
  57.8891622  61.7876968  32.1715794  57.0471622  61.6566968  33.7265794
  57.6541622  63.2316968  33.1735794  61.6351622  62.2686968  35.7245794
  62.2261622  61.2516968  35.3605794  62.1601622  63.4866968  35.6315794
  61.6311622  64.2796968  35.9575794  63.4891622  63.7306968  35.0705794
  63.5191622  63.3096968  34.0645794  63.7441622  65.2406968  34.9725794
  62.8871622  65.6896968  34.4685794  63.7941622  65.6636968  35.9765794
  64.9881622  65.6516968  34.1925794  65.8671622  65.2756968  34.7105794
  64.9511622  65.1976968  33.2015794  65.1131622  67.1646968  34.0505794
  64.5591622  67.9236968  34.8465794  65.8331622  67.6056968  33.0255794
  66.3001622  66.9436968  32.4235794  65.9771622  68.5956968  32.9085794
  64.5681622  63.0586968  35.9135794  65.3951622  62.2986968  35.4015794
  64.5401622  63.3456968  37.2115794  63.8361622  63.9816968  37.5605794
  65.5051622  62.8086968  38.1655794  66.5001622  63.1516968  37.8745794
  65.1941622  63.3396968  39.5655794  65.1291622  64.4276968  39.4975794
  64.2141622  62.9706968  39.8745794  66.2081622  62.9976968  40.6365794
  66.2441622  61.9176968  40.7825794  67.1941622  63.3496968  40.3285794
  65.8151622  63.6686968  41.9445794  65.7701622  64.7476968  41.7845794
  64.8331622  63.3396968  42.2555794  66.8171622  63.3956968  43.0505794
  66.8741622  62.3186968  43.2175794  67.7991622  63.7586968  42.7445794
  66.4071622  64.0686968  44.3145794  67.0681622  63.8606968  45.0495794
  66.3691622  65.0676968  44.1745794  65.4871622  63.7496968  44.5945794
  65.5011622  61.2806968  38.1545794  66.5521622  60.6416968  38.2305794
  64.3071622  60.7076968  38.0445794  63.4781622  61.2846968  38.0015794
  64.1391622  59.2616968  37.9825794  64.7291622  58.7996968  38.7685794
  62.6871622  58.8996968  38.1835794  62.5741622  57.8156968  38.1675794
  62.3381622  59.2646968  39.1465794  62.0741622  59.3396968  37.3965794
  64.6481622  58.7026968  36.6595794  65.3171622  57.6696968  36.6325794
  64.3271622  59.3886968  35.5655794  63.7831622  60.2356968  35.6405794
  64.7721622  58.9676968  34.2395794  64.5111622  57.9256968  34.1065794
  64.1091622  59.8046968  33.1595794  64.4471622  59.4676968  32.1795794
  63.0261622  59.6866968  33.2145794  64.3651622  60.8576968  33.2835794
  66.2861622  59.0596968  34.1295794  66.9251622  58.2136968  33.4995794
  66.8501622  60.0926968  34.7535794  66.2731622  60.7416968  35.2635794
  68.3001622  60.2856968  34.7885794  68.6741622  60.2976968  33.7635794
  68.6441622  61.6236968  35.4495794  67.8291622  61.9426968  36.0975794
  69.5221622  61.4996968  36.0855794  68.9651622  62.7356968  34.4505794
  69.9691622  62.5826968  34.0525794  68.2591622  62.6666968  33.6205794
  68.8611622  64.1336968  35.0465794  69.2931622  64.3276968  36.2025794
  68.3411622  65.0386968  34.3535794  69.0011622  59.1336968  35.5145794
  70.0241622  58.6336968  35.0475794  68.4451622  58.7086968  36.6465794
  67.6041622  59.1486968  36.9965794  68.9771622  57.5476968  37.3495794
  70.0391622  57.7066968  37.5245794  68.2911622  57.3586968  38.7075794
  68.3851622  58.2776968  39.2865794  67.2301622  57.1686968  38.5455794
  68.8801622  56.2086968  39.5275794  68.8531622  55.2876968  38.9465794
  69.9241622  56.4296968  39.7535794  68.1241622  55.9346968  40.8175794
  66.8991622  55.7116968  40.7545794  68.7571622  55.9406968  41.8965794
  68.8191622  56.2866968  36.5015794  69.6981622  55.4196968  36.4915794
  67.7001622  56.1876968  35.7885794  67.0051622  56.9206968  35.8325794
  67.4371622  55.0276968  34.9415794  67.4741622  54.1326968  35.5645794
  66.0511622  55.1196968  34.3245794  65.8331622  54.1986968  33.7835794
  65.3081622  55.2446968  35.1135794  65.9821622  55.9476968  33.6255794
  68.5001622  54.9066968  33.8535794  69.0711622  53.8346968  33.6425794
  68.7621622  56.0226968  33.1805794  68.2591622  56.8676968  33.4125794
  69.7751622  56.0956968  32.1365794  69.5441622  55.3446968  31.3795794
  69.7381622  57.4626968  31.4755794  68.7411622  57.6496968  31.0725794
  69.9821622  58.2416968  32.2005794  70.4601622  57.4946968  30.6585794
  71.1711622  55.8116968  32.6825794  71.9691622  55.1146968  32.0545794
  71.4511622  56.3556968  33.8625794  70.7491622  56.9126968  34.3305794
  72.7621622  56.2356968  34.4895794  73.5191622  56.5626968  33.7755794
  72.8281622  57.1616968  35.7105794  72.8661622  58.1866968  35.3375794
  71.9071622  57.0376968  36.2805794  73.9971622  56.9226968  36.6545794
  73.7961622  56.0406968  37.2655794  74.9121622  56.7606968  36.0825794
  74.2081622  58.1246968  37.5635794  74.8891622  57.8586968  38.3715794
  74.6921622  58.9066968  36.9775794  72.9501622  58.6726968  38.0695794
  72.4391622  59.2956968  37.4605794  72.4291622  58.3876968  39.2615794
  73.0551622  57.5536968  40.0835794  72.6461622  57.3206968  40.9755794
  73.9131622  57.1126968  39.7905794  71.2781622  58.9386968  39.6325794
  70.8731622  58.7026968  40.5255794  70.7881622  59.5606968  39.0065794
  73.1051622  54.7996968  34.8905794  74.2541622  54.3766968  34.7775794
  72.1051622  54.0476968  35.3425794  71.1751622  54.4396968  35.4035794
  72.3411622  52.7136968  35.8915794  73.3631622  52.6586968  36.2685794
  71.4061622  52.4366968  37.0805794  70.3761622  52.5366968  36.7395794
  71.6051622  51.0146968  37.5975794  71.0311622  50.8856968  38.5145794
  71.2401622  50.2776968  36.8825794  72.6591622  50.8316968  37.8115794
  71.6371622  53.4606968  38.1845794  70.9321622  53.2946968  38.9985794
  72.6491622  53.3516968  38.5765794  71.5181622  54.4796968  37.8285794
  72.1681622  51.5856968  34.8735794  73.0091622  50.6906968  34.7795794
  71.0741622  51.6286968  34.1215794  70.4301622  52.4026968  34.2075794
  70.7571622  50.5676968  33.1715794  71.0451622  49.6076968  33.6015794
  69.2521622  50.5346968  32.9055794  68.9661622  51.4906968  32.4685794
  69.0361622  49.7496968  32.1785794  68.3871622  50.3176968  34.1495794
  68.6161622  51.0826968  34.8905794  66.9101622  50.4556968  33.8125794
  66.3101622  50.3226968  34.7125794  66.7101622  51.4486968  33.4085794
  66.6231622  49.7046968  33.0765794  68.6751622  48.9546968  34.7645794
  67.9341622  48.7176968  35.5285794  68.6671622  48.1906968  33.9915794
  69.6551622  48.9756968  35.2345794  71.5301622  50.7366968  31.8655794
  71.0291622  51.3236968  30.9035794  72.7501622  50.2066968  31.8445794
  73.1051622  49.7636968  32.6805794  73.6811622  50.4176968  30.7385794
  73.3721622  51.2936968  30.1665794  75.1071622  50.6916968  31.2645794
  75.7771622  50.8086968  30.4115794  75.1421622  51.9876968  32.0665794
  76.1671622  52.2016968  32.3695794  74.7831622  52.8126968  31.4505794
  74.5241622  51.9166968  32.9605794  75.5991622  49.5226968  32.1055794
  76.6421622  49.6966968  32.3715794  75.0321622  49.4536968  33.0285794
  75.5561622  48.5806968  31.5615794  73.7401622  49.2396968  29.7675794
  74.1841622  49.3916968  28.6305794  73.3011622  48.0696968  30.2205794
  72.9471622  47.9966968  31.1615794  73.2561622  46.8786968  29.3765794
  74.0561622  46.9426968  28.6405794  73.4831622  45.6176968  30.2165794
  72.8021622  45.6316968  31.0695794  73.2571622  44.7266968  29.6325794
  74.9091622  45.4996968  30.7175794  75.7921622  46.1946968  30.1735794
  75.1461622  44.7046968  31.6515794  71.9161622  46.8056968  28.6425794
  70.9531622  47.4516968  29.0575794  71.8571622  46.0346968  27.5385794
  73.0131622  45.3876968  26.8885794  73.3571622  44.5396968  27.4795794
  73.8251622  46.0916968  26.7035794  72.4511622  44.8926968  25.5825794
  72.9291622  43.9626968  25.2715794  72.5991622  45.6586968  24.8185794
  70.9981622  44.7066968  25.8095794  70.8201622  43.7346968  26.2715794
  70.4661622  44.8036968  24.8685794  70.6271622  45.8486968  26.7535794
  70.4291622  46.7546968  26.1785794  69.4001622  45.4796968  27.5925794
  68.3221622  46.0316968  27.3645794  69.5681622  44.5526968  28.5345794
  70.4811622  44.1396968  28.6675794  68.5271622  44.2196968  29.5075794
  67.7241622  44.9366968  29.3885794  67.9341622  42.8106968  29.2685794
  67.3071622  42.5636968  30.1225794  67.0561622  42.8016968  28.0255794
  66.3061622  43.5896968  28.0955794  67.6551622  42.9496968  27.1265794
  66.5331622  41.8486968  27.9605794  69.0381622  41.7716968  29.1615794
  68.5831622  40.7806968  29.0995794  69.6341622  41.9246968  28.2595794
  69.6901622  41.7816968  30.0355794  69.0941622  44.2986968  30.9245794
  70.2621622  43.9796968  31.1445794  68.2691622  44.7256968  31.8925794
  66.8781622  45.1806968  31.7375794  66.1971622  44.3336968  31.8305794
  66.6911622  45.7356968  30.8215794  66.7111622  46.1166968  32.8945794
  65.6701622  46.2146968  33.1825794  67.1091622  47.0946968  32.6225794
  67.5421622  45.5206968  33.9855794  66.9651622  44.7296968  34.4675794
  67.8381622  46.2516968  34.7345794  68.7531622  44.9106968  33.2665794
  69.5721622  45.6306968  33.2595794  69.1831622  43.6126968  33.9505794
  68.5731622  42.5636968  33.7455794  70.2411622  43.6946968  34.7505794
  70.7291622  44.5746968  34.8415794  70.6691622  42.5726968  35.5765794
  70.3571622  41.6326968  35.1205794  72.1921622  42.5366968  35.7075794
  72.4841622  41.6466968  36.2645794  72.6441622  42.4926968  34.7155794
  72.6681622  43.6836968  36.3915794  72.6821622  44.4116968  35.7615794
  70.0141622  42.6956968  36.9455794  69.4651622  43.7476968  37.2805794
  70.0661622  41.6256968  37.7315794  70.5001622  40.7776968  37.3985794
  69.4491622  41.6286968  39.0535794  68.3861622  41.8456968  38.9435794
  69.5891622  40.2576968  39.7135794  69.1461622  39.5116968  39.0515794
  70.6481622  40.0126968  39.8125794  68.9281622  40.1406968  41.0715794
  69.6351622  40.4066968  42.2355794  70.6701622  40.7106968  42.1765794
  69.0411622  40.2946968  43.4775794  69.6161622  40.4946968  44.3675794
  67.7241622  39.9056968  43.5705794  67.1281622  39.7926968  44.8055794
  66.2621622  39.4006968  44.7465794  67.0001622  39.6306968  42.4305794
  65.9651622  39.3296968  42.4955794  67.6031622  39.7476968  41.1895794
  67.0241622  39.5666968  40.3025794  70.0651622  42.7076968  39.9305794
  69.3571622  43.4366968  40.6225794  71.3901622  42.8076968  39.8855794
  71.9161622  42.1956968  39.2785794  72.1161622  43.7956968  40.6725794
  71.8571622  43.6656968  41.7245794  73.6251622  43.5976968  40.5175794
  73.8991622  42.6456968  40.9745794  73.8581622  43.5426968  39.4525794
  74.4541622  44.7126968  41.1305794  74.1531622  45.6576968  40.6895794
  74.2851622  44.7576968  42.2075794  75.9401622  44.5606968  40.8385794
  76.0971622  44.4096968  39.7695794  76.4451622  45.4806968  41.1325794
  76.5541622  43.4126968  41.6215794  76.3131622  43.5426968  42.6775794
  76.1281622  42.4696968  41.2775794  78.0341622  43.3776968  41.4665794
  78.4251622  42.6566968  42.0585794  78.2771622  43.1826968  40.5045794
  78.4251622  44.2726968  41.7295794  71.7251622  45.2136968  40.2705794
  71.5141622  46.0766968  41.1275794  71.6211622  45.4436968  38.9635794
  71.7911622  44.6986968  38.3025794  71.2931622  46.7656968  38.4345794
  72.0451622  47.4746968  38.7825794  71.3221622  46.7476968  36.9055794
  70.8731622  45.8256968  36.5415794  70.7141622  47.5736968  36.5435794
  72.7111622  46.9286968  36.3195794  73.0921622  47.8986968  36.6455794
  73.3881622  46.1686968  36.7065794  72.7191622  46.8746968  34.8055794
  72.0421622  46.0456968  34.1995794  73.4881622  47.7626968  34.1845794
  73.9941622  48.4566968  34.7155794  73.5911622  47.7106968  33.1825794
  69.9381622  47.2746968  38.9235794  69.7771622  48.4666968  39.1945794
  68.9661622  46.3756968  39.0375794  69.1261622  45.4116968  38.7805794
  67.6511622  46.7686968  39.5225794  67.2831622  47.5846968  38.9005794
  66.6351622  45.6056968  39.4495794  66.9831622  44.7846968  40.0755794
  65.2731622  46.0516968  39.9625794  64.5521622  45.2426968  39.8465794
  65.3201622  46.3076968  41.0205794  64.9241622  46.9176968  39.3985794
  66.5151622  45.0986968  38.0245794  65.6561622  44.4326968  37.9655794
  66.3511622  45.9316968  37.3385794  67.4021622  44.5696968  37.7375794
  67.7701622  47.2736968  40.9575794  67.2101622  48.3106968  41.3105794
  68.5341622  46.5556968  41.7745794  68.9961622  45.7246968  41.4315794
  68.6781622  46.9046968  43.1845794  67.6861622  47.0856968  43.6005794
  69.3211622  45.7456968  43.9495794  70.1981622  45.3836968  43.4105794
  69.6581622  46.1276968  44.9145794  68.3651622  44.5876968  44.2155794
  67.4531622  44.9916968  44.6565794  68.1081622  44.0886968  43.2795794
  68.9681622  43.5856968  45.1825794  69.7091622  42.9816968  44.6575794
  69.4631622  44.1176968  45.9965794  67.9001622  42.6896968  45.7935794
  67.1661622  43.3076968  46.3125794  67.3941622  42.1566968  44.9885794
  68.4881622  41.7076968  46.7535794  67.7771622  41.0516968  47.0465794
  69.2361622  41.1976968  46.3065794  68.8531622  42.1896968  47.5635794
  69.4831622  48.1936968  43.3815794  69.5261622  48.7456968  44.4815794
  70.1001622  48.6756968  42.3065794  70.0291622  48.1926968  41.4225794
  70.8621622  49.9196968  42.3445794  71.2441622  50.0846968  43.3525794
  72.0661622  49.8316968  41.4025794  71.7001622  49.5916968  40.4075794
  72.5541622  50.8066968  41.3545794  73.1161622  48.8026968  41.8125794
  73.5801622  49.1556968  42.7345794  72.6731622  47.8476968  42.0475794
  74.2101622  48.6356968  40.7685794  74.0861622  49.1236968  39.6445794
  75.2861622  47.9456968  41.1365794  75.3621622  47.5926968  42.0775794
  76.0441622  47.8486968  40.4785794  69.9941622  51.1296968  41.9795794
  70.4491622  52.2696968  42.0355794  68.7441622  50.8766968  41.6055794
  68.4091622  49.9246968  41.5555794  67.8161622  51.9496968  41.2565794
  68.3641622  52.7736968  40.7985794  66.7721622  51.4466968  40.2525794
  66.2091622  50.6326968  40.7045794  66.0951622  52.2676968  40.0545794
  67.2931622  51.0006968  38.8845794  68.0821622  50.2706968  39.0295794
  66.1961622  50.3316968  38.0705794  66.5841622  50.0426968  37.0955794
  65.8611622  49.4306968  38.5805794  65.3541622  51.0126968  37.9365794
  67.8731622  52.1806968  38.1245794  68.2011622  51.8566968  37.1385794
  67.1221622  52.9626968  38.0065794  68.7311622  52.5866968  38.6555794
  67.1231622  52.5066968  42.4995794  65.8971622  52.4396968  42.6195794
  67.9151622  53.0636968  43.4115794  68.9061622  53.1306968  43.2235794
  67.4211622  53.5186968  44.7105794  67.0351622  52.6516968  45.2455794
  68.5711622  54.1246968  45.5245794  68.9341622  55.0046968  44.9905794
  68.1931622  54.4686968  46.4875794  69.7651622  53.1846968  45.7205794
  70.0391622  52.7006968  44.7845794  70.6241622  53.7776968  46.0365794
  69.4991622  52.1196968  46.7805794  68.5731622  51.5866968  46.5615794
  70.3211622  51.4026968  46.7555794  69.4341622  52.7396968  48.1745794
  70.3391622  53.3296968  48.3295794  68.5761622  53.4116968  48.2295794
  69.3301622  51.7276968  49.2685794  68.4491622  51.2376968  49.1945794
  70.0871622  51.0626968  49.1925794  69.3791622  52.1936968  50.1645794
  66.2771622  54.5316968  44.6035794  65.2671622  54.4136968  45.3025794
  66.4301622  55.5186968  43.7265794  67.2551622  55.5606968  43.1415794
  65.4431622  56.5886968  43.6145794  65.1731622  56.9066968  44.6185794
  66.0431622  57.7966968  42.8935794  66.9511622  58.0946968  43.4195794
  66.3241622  57.5706968  41.8805794  65.1231622  58.9956968  42.8235794
  64.9161622  59.8016968  43.9365794  65.4201622  59.5626968  44.8605794
  64.0771622  60.9006968  43.8805794  63.9331622  61.5116968  44.7575794
  63.4361622  61.2056968  42.7005794  62.6011622  62.2986968  42.6445794
  62.6031622  62.8116968  43.4605794  63.6241622  60.4236968  41.5785794
  63.1161622  60.6736968  40.6615794  64.4661622  59.3266968  41.6445794
  64.5931622  58.6976968  40.7815794  64.1771622  56.1166968  42.8985794
  63.0911622  56.6456968  43.1295794  64.3151622  55.1216968  42.0295794
  65.2341622  54.7556968  41.8135794  63.1471622  54.5346968  41.3855794
  62.5121622  55.3336968  41.0005794  63.5421622  53.6166968  40.1995794
  64.2181622  52.8606968  40.5745794  62.3281622  52.8876968  39.6395794
  62.6261622  52.2626968  38.7965794  61.8641622  52.2466968  40.3865794
  61.6041622  53.6226968  39.2925794  64.2141622  54.4336968  39.1015794
  63.5481622  55.2276968  38.7615794  65.1371622  54.8726968  39.4505794
  64.4511622  53.7866968  38.2565794  62.3591622  53.7666968  42.4475794
  61.1271622  53.7296968  42.4165794  63.0771622  53.1816968  43.4035794
  64.0871622  53.2166968  43.3655794  62.4491622  52.5526968  44.5525794
  61.7341622  51.8016968  44.2155794  63.2231622  52.0656968  45.1455794
  61.7431622  53.5786968  45.4195794  60.7091622  53.2966968  46.0265794
  62.3041622  54.7816968  45.4735794  63.1611622  54.9626968  44.9705794
  61.7201622  55.8636968  46.2595794  61.4451622  55.4806968  47.2435794
  62.7421622  56.9856968  46.4595794  63.2071622  57.2396968  45.5135794
  62.2011622  57.8666968  46.8055794  63.8121622  56.6706968  47.4955794
  63.3751622  56.7376968  48.4895794  64.1681622  55.6516968  47.3495794
  65.2361622  57.7746968  47.4015794  64.4391622  59.3766968  47.4095794
  65.1991622  60.1556968  47.3485794  63.7571622  59.4766968  46.5665794
  63.8951622  59.4886968  48.3455794  60.4541622  56.4116968  45.6085794
  59.5241622  56.8266968  46.3015794  60.4251622  56.4206968  44.2785794
  61.2281622  56.1026968  43.7535794  59.2331622  56.8276968  43.5435794
  58.9471622  57.8306968  43.8635794  59.4701622  56.8466968  42.0125794
  59.8471622  55.8716968  41.7055794  58.1621622  57.1026968  41.2695794
  58.3611622  57.1196968  40.1975794  57.4371622  56.3066968  41.4425794
  57.7371622  58.0626968  41.5605794  60.5081622  57.8926968  41.6395794
  60.9211622  57.6676968  40.6555794  60.0401622  58.8776968  41.6065794
  61.3101622  57.9556968  42.3615794  58.0871622  55.8766968  43.8665794
  56.9521622  56.3006968  44.0885794  58.4041622  54.5866968  43.9055794
  59.3531622  54.2986968  43.7085794  57.4151622  53.5536968  44.1865794
  56.5681622  53.7006968  43.5205794  58.0281622  52.1746968  43.9615794
  58.9571622  52.0956968  44.5255794  57.3441622  51.4126968  44.3395794
  58.3091622  51.9046968  42.4895794  58.9191622  52.7006968  42.0715794
  59.0611622  50.6036968  42.3125794  59.2461622  50.4306968  41.2545794
  60.0131622  50.6856968  42.8325794  58.4911622  49.7766968  42.7345794
  56.9971622  51.8856968  41.7255794  57.1641622  51.5006968  40.7185794
  56.2781622  51.2386968  42.2245794  56.5911622  52.8886968  41.6195794
  56.8491622  53.6516968  45.6015794  55.6301622  53.6336968  45.7875794
  57.7381622  53.7536968  46.5875794  58.7241622  53.7546968  46.3675794
  57.3351622  53.8596968  47.9865794  56.7341622  52.9856968  48.2385794
  58.5681622  53.8846968  48.8945794  59.3341622  54.5316968  48.4625794
  58.2881622  54.3106968  49.8585794  59.1221622  52.4936968  49.1685794
  58.3971622  51.6016968  49.6055794  60.4101622  52.3016968  48.8995794
  60.8141622  51.3926968  49.0575794  60.9571622  53.0486968  48.4995794
  56.4661622  55.0886968  48.2355794  55.5101622  55.0366968  49.0085794
  56.7941622  56.1886968  47.5665794  57.6021622  56.1916968  46.9585794
  56.0221622  57.4186968  47.6905794  55.8681622  57.6246968  48.7485794
  56.7911622  58.5916968  47.0755794  57.7461622  58.6896968  47.5895794
  57.0021622  58.3556968  46.0315794  56.0581622  59.9276968  47.1065794
  56.6321622  60.6456968  46.5195794  55.0781622  59.8346968  46.6475794
  55.8921622  60.4876968  48.5055794  55.1221622  61.4596968  48.6725794
  56.5351622  59.9666968  49.4395794  54.6461622  57.2686968  47.0355794
  53.6591622  57.8426968  47.5005794  54.5811622  56.4906968  45.9585794
  55.4211622  56.0666968  45.5865794  53.3051622  56.1716968  45.3245794
  52.7571622  57.0986968  45.1495794  53.5281622  55.4916968  43.9815794
  52.5661622  55.3186968  43.4965794  54.1321622  56.1346968  43.3405794
  54.0321622  54.5366968  44.1045794  52.4721622  55.2826968  46.2405794
  51.2501622  55.4166968  46.3165794  53.1421622  54.3706968  46.9345794
  54.1441622  54.2916968  46.8285794  52.4731622  53.5126968  47.8975794
  51.5591622  53.1276968  47.4505794  53.3831622  52.3596968  48.3185794
  54.3861622  52.7446968  48.4965794  53.0191622  51.9646968  49.2675794
  53.4661622  51.1936968  47.3335794  53.8621622  51.5746968  46.4025794
  54.4381622  50.1406968  47.8335794  54.5251622  49.3406968  47.0995794
  55.4221622  50.5866968  47.9845794  54.0851622  49.7286968  48.7785794
  52.0841622  50.5936968  47.1095794  52.1771622  49.6726968  46.5335794
  51.6101622  50.3656968  48.0645794  51.4491622  51.2676968  46.5365794
  52.0421622  54.3156968  49.1145794  51.0871622  53.9526968  49.7975794
  52.7481622  55.4086968  49.3825794  53.5401622  55.6546968  48.8045794
  52.4111622  56.2636968  50.5145794  52.2901622  55.6356968  51.3915794
  53.5301622  57.2636968  50.8055794  54.4751622  56.7286968  50.8885794
  53.6181622  57.9596968  49.9755794  53.3091622  58.0526968  52.0875794
  52.3351622  58.5266968  52.0285794  53.3561622  57.3806968  52.9455794
  54.3251622  59.1746968  52.2575794  54.2291622  59.5926968  53.2605794
  55.3301622  58.7646968  52.1705794  54.1571622  60.2316968  51.2625794
  54.7901622  60.2366968  50.4715794  53.2641622  61.2126968  51.3535794
  52.4491622  61.2746968  52.3965794  52.4911622  60.5806968  53.1275794
  51.7681622  62.0166968  52.4485794  53.1831622  62.1306968  50.4015794
  53.7911622  62.0846968  49.5995794  52.5141622  62.8846968  50.4685794
  51.1081622  57.0046968  50.2575794  50.1711622  56.9156968  51.0445794
  51.0501622  57.7306968  49.1465794  51.8481622  57.7596968  48.5265794
  49.8651622  58.5116968  48.8065794  49.6191622  59.1296968  49.6665794
  50.1521622  59.3996968  47.5945794  50.7661622  58.8346968  46.8905794
  49.2111622  59.6296968  47.0905794  50.8371622  60.7246968  47.9395794
  51.7371622  60.5046968  48.5135794  51.2581622  61.4666968  46.6865794
  52.0891622  62.1366968  46.9085794  51.5371622  60.7306968  45.9435794
  50.4241622  62.0446968  46.2875794  49.9091622  61.5846968  48.7805794
  50.3341622  62.5846968  48.8665794  48.9291622  61.6696968  48.3105794
  49.8031622  61.1906968  49.7895794  48.6301622  57.6426968  48.5465794
  47.5301622  57.9766968  48.9915794  48.8091622  56.5326968  47.8335794
  49.7271622  56.2996968  47.4785794  47.7001622  55.6176968  47.5595794
  46.9041622  55.7686968  48.2845794  47.0721622  55.9116968  46.1885794
  47.8241622  55.7826968  45.4085794  46.2701622  55.1956968  46.0035794
  46.4981622  57.2936968  46.0655794  47.0241622  58.3436968  45.3655794
  47.9341622  58.2966968  44.7855794  46.2171622  59.4496968  45.4935794
  46.4041622  60.3426968  45.0585794  45.1481622  59.1306968  46.2885794
  44.0721622  59.9116968  46.7015794  43.9781622  60.9436968  46.3945794
  43.1361622  59.3196968  47.5045794  42.2831622  59.8936968  47.8375794
  43.2511622  57.9806968  47.8985794  42.4921622  57.5446968  48.5305794
  44.3161622  57.2036968  47.4885794  44.3881622  56.1686968  47.7845794
  45.2911622  57.7806968  46.6685794  48.1341622  54.1556968  47.6155794
  48.4231622  53.5516968  46.5785794  48.1801622  53.5806968  48.8285794
  47.8821622  54.2086968  50.1275794  47.0041622  54.8516968  50.0985794
  48.7501622  54.7606968  50.4845794  47.6101622  53.0326968  51.0155794
  46.5581622  52.7576968  50.9455794  47.8681622  53.2826968  52.0375794
  48.4581622  51.9196968  50.4765794  48.0541622  50.9416968  50.7405794
  49.4701622  52.0176968  50.8695794  48.4791622  52.1506968  48.9615794
  49.4671622  51.9206968  48.5595794  47.4071622  51.3396968  48.2535794
  46.2271622  51.4906968  48.5665794  47.8081622  50.5046968  47.3035794
  48.7881622  50.4486968  47.0675794  46.8411622  49.8596968  46.4255794
  46.1461622  50.6176968  46.0855794  47.5381622  49.2616968  45.1945794
  46.8581622  48.5846968  44.6755794  47.9411622  50.3726968  44.2495794
  48.3211622  49.8906968  43.3715794  47.0751622  50.9776968  43.9835794
  48.7131622  51.0056968  44.6895794  48.7171622  48.5596968  45.6035794
  48.8641622  48.7236968  46.5365794  46.0241622  48.7936968  47.1585794
  44.9141622  48.4636968  46.7445794  46.5801622  48.2646968  48.2455794
  47.5021622  48.5646968  48.5245794  45.8001622  47.5126968  49.2235794
  44.8771622  47.1446968  48.7785794  46.5531622  46.2866968  49.7035794
  46.0381622  45.8566968  50.5635794  46.5821622  45.5336968  48.9225794
  47.5711622  46.5516968  49.9935794  45.5061622  48.4626968  50.3735794
  46.2881622  48.5546968  51.3135794  44.3781622  49.1846968  50.2915794
  43.2451622  48.8866968  49.3985794  42.8651622  47.8736968  49.5335794
  43.5021622  49.0836968  48.3705794  42.2101622  49.9096968  49.7895794
  41.5611622  49.4836968  50.5565794  41.6121622  50.2186968  48.9315794
  42.9651622  51.0506968  50.3655794  42.3531622  51.6326968  51.0485794
  43.3561622  51.6756968  49.5665794  44.1331622  50.3866968  51.0995794
  45.0051622  51.0396968  51.0625794  43.7611622  50.1516968  52.5645794
  43.5891622  51.1276968  53.2925794  43.6471622  48.8996968  52.9935794
  43.8141622  48.1266968  52.3655794  43.2061622  48.6146968  54.3535794
  43.7711622  49.2086968  55.0595794  41.7461622  49.0046968  54.5225794
  41.4741622  48.8896968  55.5685794  41.5621622  50.0416968  54.2465794
  41.1161622  48.3576968  53.9105794  43.3981622  47.1536968  54.7385794
  43.2951622  46.2566968  53.9005794  43.6881622  46.9296968  56.0165794
  43.7881622  47.7086968  56.6525794  43.6731622  45.5896968  56.5835794
  43.0471622  44.9416968  55.9695794  45.0821622  44.9816968  56.6225794
  45.0261622  43.9866968  57.0675794  45.4291622  44.8506968  55.5965794
  46.0981622  45.8006968  57.3745794  46.3061622  45.6006968  58.7295794
  45.7181622  44.8646968  59.2595794  47.2541622  46.3396968  59.4225794
  47.3961622  46.1756968  60.4805794  48.0171622  47.2796968  58.7585794
  48.7561622  47.8566968  59.2955794  47.8291622  47.4796968  57.4045794
  48.4321622  48.2076968  56.8815794  46.8771622  46.7366968  56.7175794
  46.7501622  46.8836968  55.6575794  43.0431622  45.6436968  57.9745794
  42.9761622  46.7086968  58.5935794  42.5681622  44.4976968  58.4535794
  42.6801622  43.6436968  57.9275794  41.7761622  44.4486968  59.6795794
  41.5711622  45.4616968  60.0175794  40.4241622  43.7836968  59.3975794
  40.0491622  44.1706968  58.4525794  40.5321622  42.7206968  59.3095794
  39.4691622  44.0816968  60.4005794  39.4571622  45.0316968  60.5405794
  42.5121622  43.7106968  60.8025794  43.3861622  42.8806968  60.5455794
  42.1651622  44.0326968  62.0465794  41.4391622  44.7176968  62.2045794
  42.7551622  43.3816968  63.2185794  43.1521622  42.4146968  62.9275794
  43.8931622  44.2286968  63.7935794  43.4451622  45.1486968  64.1675794
  44.3141622  43.7106968  64.6555794  45.0271622  44.6126968  62.8415794
  44.6291622  44.9116968  61.8745794  45.7821622  45.8146968  63.3705794
  46.6711622  46.0106968  62.7715794  45.1351622  46.6916968  63.3475794
  46.0701622  45.6196968  64.3985794  45.9701622  43.4456968  62.6305794
  45.4331622  42.6176968  62.1865794  46.7731622  43.7356968  61.9525794
  46.4001622  43.1296968  63.5825794  41.6861622  43.1556968  64.2805794
  40.6941622  43.8816968  64.3205794  41.8731622  42.1496968  65.1315794
  42.6951622  41.5686968  65.0705794  40.9951622  41.9826968  66.2925794
  40.3671622  42.8556968  66.3565794  40.0901622  40.7466968  66.1375794
  39.3131622  40.8096968  66.9015794  39.5711622  40.7866968  65.1815794
  40.7831622  39.4046968  66.2955794  41.2521622  38.7116968  65.1875794
  41.1341622  39.1316968  64.2035794  41.8781622  37.4886968  65.3245794
  42.2361622  36.9576968  64.4565794  42.0351622  36.9346968  66.5795794
  42.6591622  35.7156968  66.7135794  43.3031622  35.5616968  66.0115794
  41.5691622  37.5966968  67.6945794  41.6921622  37.1636968  68.6755794
  40.9441622  38.8196968  67.5495794  40.5521622  39.3176968  68.4195794
  41.7951622  41.8966968  67.5945794  42.9131622  41.3716968  67.6185794
  41.2111622  42.4246968  68.6685794  40.2921622  42.8376968  68.5785794
  41.8011622  42.3516968  70.0055794  42.8251622  42.7226968  69.9555794
  41.0301622  43.2406968  70.9705794  41.5331622  43.2556968  71.9345794
  40.9921622  44.2596968  70.5845794  40.0111622  42.8726968  71.0965794
  41.8261622  40.9136968  70.5185794  40.7741622  40.2906968  70.6635794
  43.0201622  40.3906968  70.7915794  43.8531622  40.9456968  70.6585794
  43.1531622  39.0296968  71.3145794  42.6681622  38.3456968  70.6175794
  44.6251622  38.6316968  71.4405794  45.0881622  39.2186968  72.2355794
  44.6471622  37.5846968  71.7435794  45.4341622  38.8286968  70.1785794
  44.8921622  38.3836968  69.3425794  45.5661622  39.8716968  69.9455794
  46.7941622  38.1616968  70.2765794  47.3851622  38.4666968  69.4135794
  47.2921622  38.4696968  71.1855794  46.6601622  36.6526968  70.2785794
  46.1801622  36.3416968  71.2065794  46.0341622  36.3476968  69.4385794
  47.9861622  35.9866968  70.1705794  48.0741622  35.2846968  70.8915794
  48.0861622  35.5676968  69.2575794  48.7151622  36.6776968  70.2945794
  42.4621622  38.8956968  72.6755794  41.8011622  37.8916968  72.9485794
  42.6261622  39.9126968  73.5205794  43.1531622  40.7226968  73.2285794
  41.9961622  39.9546968  74.8395794  41.1781622  39.2366968  74.8945794
  43.0031622  39.6066968  75.9415794  43.7721622  40.3816968  75.9375794
  42.5311622  39.6506968  76.9225794  43.7111622  38.2746968  75.7625794
  44.1041622  38.1636968  74.7525794  44.5671622  38.2616968  76.4395794
  42.8341622  37.0976968  76.1225794  41.8571622  37.2936968  76.8775794
  43.1191622  35.9776968  75.6455794  41.4121622  41.3386968  75.0995794
  41.5441622  42.2346968  74.2675794  40.7691622  41.5146968  76.2515794
  40.6471622  40.7476968  76.8955794  40.3641622  42.8486968  76.6765794
  39.7111622  43.2776968  75.9175794  39.6011622  42.8106968  78.0115794
  40.0981622  42.1286968  78.7035794  39.6191622  43.8106968  78.4485794
  38.1371622  42.4006968  77.8465794  37.8201622  41.7516968  76.8295794
  37.3041622  42.7146968  78.7325794  41.6301622  43.6976968  76.7805794
  42.6831622  43.1946968  77.1695794  41.5331622  44.9666968  76.3925794
  40.6431622  45.3166968  76.0605794  42.6621622  45.8936968  76.4745794
  43.0651622  45.8556968  77.4875794  43.7911622  45.5186968  75.4905794
  44.1951622  44.5386968  75.7385794  43.2711622  45.4846968  74.0565794
  44.0901622  45.2226968  73.3855794  42.4931622  44.7306968  73.9465794
  42.8741622  46.4556968  73.7595794  44.8501622  46.4786968  75.5925794
  45.2911622  46.3366968  76.4355794  42.2221622  47.3266968  76.1925794
  41.0611622  47.5806968  75.8705794  43.1501622  48.2676968  76.3215794
  44.0931622  48.0236968  76.5815794  42.8421622  49.6616968  76.0315794
  41.8431622  49.7496968  75.6075794  42.8861622  50.5286968  77.2995794
  43.8981622  50.5226968  77.7075794  42.5111622  51.9666968  76.9675794
  42.5041622  52.5646968  77.8785794  43.2321622  52.4136968  76.2865794
  41.5191622  52.0036968  76.5185794  41.9471622  49.9656968  78.3485794
  41.9021622  50.6426968  79.2025794  40.9431622  49.8436968  77.9485794
  42.3081622  49.0026968  78.7105794  43.8101622  50.2186968  74.9965794
  45.0231622  50.0266968  75.0975794  43.2651622  50.9036968  73.9955794
  42.2641622  51.0356968  73.9545794  44.0751622  51.4206968  72.9015794
  45.0391622  50.9206968  72.9185794  43.4111622  51.1216968  71.5565794
  43.0271622  50.0996968  71.5805794  42.5481622  51.7816968  71.4495794
  44.3001622  51.2576968  70.3185794  44.8391622  52.2006968  70.3755794
  45.3241622  50.1406968  70.2755794  46.0301622  50.3356968  69.4715794
  45.8561622  50.0186968  71.2105794  44.8151622  49.2156968  70.0345794
  43.4631622  51.2626968  69.0525794  44.1181622  51.3566968  68.1855794
  42.8921622  50.3376968  68.9685794  42.7781622  52.1116968  69.0625794
  44.3071622  52.9176968  73.0435794  43.3611622  53.6916968  73.2065794
  45.5731622  53.3176968  72.9795794  46.3151622  52.6416968  72.8495794
  45.9401622  54.7166968  73.1015794  47.0131622  54.8216968  72.9485794
  45.4171622  55.2966968  72.3435794  45.5811622  55.2706968  74.4645794
  45.4581622  56.4826968  74.6405794  45.4081622  54.3676968  75.4255794
  45.5471622  53.3906968  75.2105794  45.0061622  54.7206968  76.7715794
  44.8471622  53.8026968  77.3355794  45.8181622  55.2746968  77.2425794
  43.7431622  55.5546968  76.8445794  43.5561622  56.3106968  77.7925794
  42.8711622  55.4276968  75.8505794  43.0701622  54.8146968  75.0725794
  41.6871622  56.2776968  75.7895794  41.4831622  56.6916968  76.7645794
  41.9251622  57.4376968  74.8145794  42.2541622  57.0026968  73.8715794
  41.0041622  57.9686968  74.6225794  42.9891622  58.4306968  75.2795794
  42.6161622  58.9646968  76.1375794  43.9061622  57.9486968  75.5865794
  43.2941622  59.5066968  74.2535794  43.7241622  60.6096968  74.6595794
  43.1131622  59.2486968  73.0445794  40.4301622  55.5086968  75.3925794
  39.3271622  55.8246968  75.8475794  40.6051622  54.4916968  74.5535794
  41.5281622  54.2816968  74.1995794  39.4781622  53.7416968  74.0095794
  38.5511622  54.1796968  74.3635794  39.4131622  53.9226968  72.4895794
  40.1431622  53.2736968  72.0045794  38.4241622  53.6266968  72.1375794
  39.7061622  55.3436968  72.0515794  38.7081622  56.3126968  72.0555794
  37.7081622  56.0536968  72.3715794  38.9731622  57.6146968  71.6675794
  38.1891622  58.3586968  71.6855794  40.2491622  57.9606968  71.2685794
  40.5161622  59.2536968  70.8795794  41.4441622  59.3996968  70.6705794
  41.2571622  57.0166968  71.2535794  42.2541622  57.2926968  70.9415794
  40.9831622  55.7176968  71.6445794  41.7771622  54.9866968  71.6255794
  39.5741622  52.2626968  74.3735794  40.3331622  51.5146968  73.7565794
  38.8001622  51.8396968  75.3885794  37.8321622  52.6796968  76.1165794
  37.1551622  53.2096968  75.4475794  38.3561622  53.3656968  76.7715794
  37.0401622  51.6766968  76.9165794  36.2051622  51.3216968  76.3095794
  36.6451622  52.0956968  77.8385794  37.9721622  50.5466968  77.1665794
  37.4361622  49.6186968  77.3725794  38.6241622  50.7906968  78.0045794
  38.8071622  50.4596968  75.8855794  39.8191622  50.1436968  76.1195794
  38.1791622  49.4876968  74.8935794  37.1621622  49.8086968  74.2785794
  38.7771622  48.3106968  74.7485794  39.5361622  48.0636968  75.3505794
  38.2911622  47.3146968  73.8005794  37.3581622  47.6476968  73.3465794
  39.3071622  47.1056968  72.6715794  40.1871622  46.6256968  73.1035794
  38.8761622  46.4006968  71.9585794  39.7831622  48.3436968  71.9085794
  40.2601622  49.0316968  72.6065794  40.8231622  47.9686968  70.8635794
  41.1651622  48.8626968  70.3415794  41.6761622  47.5056968  71.3585794
  40.3971622  47.2666968  70.1455794  38.6071622  49.0526968  71.2645794
  38.9711622  49.8486968  70.6145794  38.0241622  48.3476968  70.6695794
  37.9641622  49.5026968  72.0115794  38.0071622  45.9826968  74.4815794
  38.7671622  45.5416968  75.3415794  36.9131622  45.3426968  74.0905794
  36.3201622  45.7336968  73.3715794  36.6141622  44.0026968  74.5735794
  36.9881622  43.8846968  75.5915794  35.1051622  43.7696968  74.6185794
  34.7191622  43.8526968  73.6015794  34.8961622  42.7586968  74.9685794
  34.3551622  44.7576968  75.4965794  34.9471622  45.6516968  75.6945794
  33.4671622  45.0806968  74.9495794  33.9121622  44.1686968  76.8265794
  34.7361622  43.5416968  77.5455794  32.7191622  44.3346968  77.1495794
  37.2921622  42.9646968  73.6825794  37.6981622  43.2686968  72.5615794
  37.4271622  41.7476968  74.1965794  37.0991622  41.5666968  75.1355794
  38.0141622  40.6516968  73.4395794  39.0451622  40.9166968  73.2015794
  38.0231622  39.3726968  74.2825794  38.5861622  39.5666968  75.1965794
  36.9951622  39.1406968  74.5665794  38.6231622  38.1636968  73.5975794
  38.1031622  37.9736968  72.6585794  39.6461622  38.3946968  73.3825794
  38.5031622  36.9156968  74.4645794  39.0411622  37.0756968  75.4005794
  37.4501622  36.7356968  74.6875794  39.0791622  35.6916968  73.7605794
  38.5951622  35.5776968  72.7895794  40.1451622  35.8656968  73.5995794
  38.9061622  34.4406968  74.5485794  37.9261622  34.1996968  74.5945794
  39.4251622  33.6896968  74.1165794  39.2651622  34.5916968  75.4825794
  37.2421622  40.4356968  72.1405794  36.0101622  40.3816968  72.1465794
  37.9641622  40.3446968  71.0265794  38.9671622  40.4336968  71.0715794
  37.3481622  40.0586968  69.7405794  38.1101622  39.6126968  69.1015794
  36.5521622  39.3246968  69.8745794  36.7801622  41.2626968  69.0105794
  36.0861622  41.1136968  68.0035794  37.0691622  42.4576968  69.5165794
  37.5961622  42.5286968  70.3765794  36.6411622  43.6946968  68.8645794
  35.6001622  43.5916968  68.5555794  36.7451622  44.8736968  69.8325794
  37.6561622  44.7946968  70.4265794  36.8131622  45.7966968  69.2545794
  35.5361622  44.9926968  70.7345794  34.7241622  44.0396968  70.7825794
  35.3951622  46.0436968  71.3955794  37.4661622  43.9606968  67.6085794
  38.6351622  43.5886968  67.5355794  36.8621622  44.6176968  66.6245794
  35.8931622  44.8796968  66.7115794  37.4901622  44.7446968  65.3145794
  38.3041622  44.0236968  65.2365794  36.4871622  44.3626968  64.2285794
  35.6841622  45.1006968  64.1995794  37.0101622  44.3786968  63.2715794
  35.8841622  42.9866968  64.4445794  36.6901622  42.2606968  64.5625794
  35.2831622  42.9866968  65.3545794  35.0031622  42.5446968  63.3015794
  34.9731622  43.2426968  62.2675794  34.3431622  41.4936968  63.4395794
  38.0581622  46.1306968  65.0265794  37.4061622  47.1486968  65.2605794
  39.2831622  46.1546968  64.5135794  39.7551622  45.2936968  64.3135794
  39.9181622  47.3956968  64.0895794  39.2771622  48.2456968  64.3195794
  41.2441622  47.6046968  64.8205794  41.9291622  46.8306968  64.4765794
  41.6551622  48.5606968  64.4895794  41.2591622  47.5846968  66.3485794
  40.9001622  46.6156968  66.6975794  42.6821622  47.7586968  66.8495794
  42.6891622  47.8046968  67.9385794  43.2861622  46.9056968  66.5355794
  43.1281622  48.6616968  66.4535794  40.3501622  48.6606968  66.9185794
  40.4191622  48.6686968  68.0055794  40.6381622  49.6386968  66.5325794
  39.3221622  48.4466968  66.6435794  40.1611622  47.3886968  62.5845794
  40.4481622  46.3416968  62.0035794  40.0391622  48.5576968  61.9605794
  39.8141622  49.3786968  62.4975794  40.4311622  48.7406968  60.5645794
  40.7941622  47.8036968  60.1435794  39.2541622  49.2166968  59.7055794
  38.7661622  50.0326968  60.2385794  39.6321622  49.6446968  58.7785794
  38.1761622  48.1836968  59.3885794  37.8201622  47.7676968  60.3205794
  37.3491622  48.6786968  58.8805794  38.7331622  46.7956968  58.3765794
  39.6481622  47.6496968  57.1035794  39.9061622  46.9446968  56.3135794
  39.0391622  48.4506968  56.6845794  40.5681622  48.0566968  57.5215794
  41.5631622  49.7546968  60.4765794  41.4111622  50.8926968  60.9225794
  42.6961622  49.3476968  59.9085794  42.7801622  48.4016968  59.5625794
  43.8041622  50.2746968  59.6815794  43.8131622  51.0306968  60.4695794
  45.1661622  49.5666968  59.7135794  45.1861622  48.7976968  58.9385794
  46.2821622  50.5606968  59.4265794  46.4371622  51.1576968  60.3165794
  47.2021622  50.0136968  59.2205794  46.0891622  51.2106968  58.5745794
  45.3771622  48.8936968  61.0545794  46.3871622  48.4866968  61.1095794
  45.2471622  49.6126968  61.8645794  44.6681622  48.0756968  61.1825794
  43.6301622  50.9736968  58.3365794  43.8511622  50.3776968  57.2815794
  43.2141622  52.2356968  58.3825794  43.0501622  52.6866968  59.2735794
  42.9731622  53.0066968  57.1695794  42.5291622  52.3366968  56.4345794
  41.9961622  54.1526968  57.4485794  41.2081622  53.7476968  58.0865794
  42.4961622  54.9206968  58.0385794  41.2981622  54.8286968  56.2685794
  42.0511622  55.3416968  55.6695794  40.5931622  53.8086968  55.3845794
  41.3201622  53.1786968  54.8735794  39.9211622  53.1906968  55.9805794
  40.0111622  54.3266968  54.6215794  40.3091622  55.8676968  56.7795794
  39.9411622  56.4686968  55.9485794  39.4661622  55.3786968  57.2695794
  40.7951622  56.5166968  57.5055794  44.2981622  53.5316968  56.6305794
  44.7391622  54.6246968  56.9865794  44.9301622  52.7366968  55.7735794
  44.5051622  51.8596968  55.5035794  46.2971622  53.0046968  55.3355794
  46.9181622  52.9966968  56.2325794  46.8031622  51.8796968  54.4065794
  46.3871622  52.0036968  53.4095794  48.3141622  51.9156968  54.3025794
  48.6761622  51.2726968  53.5025794  48.6541622  52.9206968  54.0865794
  48.7651622  51.6096968  55.2475794  46.3531622  50.5166968  54.9345794
  46.5621622  50.4466968  56.0035794  45.2941622  50.4276968  54.8075794
  47.0241622  49.3426968  54.2535794  46.3451622  48.4926968  54.2495794
  47.2741622  49.5946968  53.2285794  47.9321622  49.0736968  54.7825794
  46.5101622  54.3606968  54.6375794  47.5241622  55.0106968  54.8845794
  45.5701622  54.8006968  53.7745794  44.4001622  54.1456968  53.1575794
  43.5181622  54.2536968  53.7885794  44.6211622  53.1146968  52.9315794
  44.2371622  54.8886968  51.8675794  43.2041622  54.8556968  51.5185794
  44.8951622  54.4636968  51.1095794  44.6641622  56.2776968  52.1805794
  43.8411622  56.7986968  52.6705794  44.9671622  56.8156968  51.2815794
  45.8321622  56.1116968  53.1635794  46.7701622  56.0716968  52.6065794
  45.8651622  57.2726968  54.1665794  46.6131622  58.2276968  53.9555794
  45.0781622  57.1906968  55.2375794  44.4991622  56.3756968  55.3815794
  45.0401622  58.2596968  56.2395794  45.0821622  59.2246968  55.7315794
  43.7351622  58.2046968  57.0335794  43.5471622  57.1756968  57.3425794
  43.8531622  58.8036968  57.9325794  42.5281622  58.7256968  56.2635794
  42.5151622  58.2576968  55.2835794  41.6221622  58.4376968  56.7865794
  42.5221622  60.2376968  56.1345794  42.7311622  60.9506968  57.1145794
  42.2851622  60.7326968  54.9235794  42.1881622  61.7376968  54.8315794
  42.1021622  60.1246968  54.1435794  46.2371622  58.1946968  57.1875794
  46.6951622  59.2206968  57.6865794  46.7331622  56.9846968  57.4335794
  46.2931622  56.1696968  57.0305794  47.9551622  56.7946968  58.2065794
  47.8081622  57.2096968  59.2015794  48.2911622  55.3066968  58.3315794
  47.5291622  54.8276968  58.9435794  48.2271622  54.8626968  57.3395794
  49.6801622  54.9806968  58.8785794  50.4391622  55.4936968  58.2915794
  49.7751622  55.4546968  60.3055794  50.8121622  55.3766968  60.6285794
  49.4771622  56.4966968  60.4075794  49.1871622  54.8316968  60.9665794
  49.9881622  53.4946968  58.7865794  51.0031622  53.3046968  59.1345794
  49.2851622  52.9136968  59.3765794  49.9171622  53.1736968  57.7455794
  49.1071622  57.5356968  57.5465794  49.9341622  58.1596968  58.2165794
  49.1401622  57.4696968  56.2195794  48.4331622  56.9366968  55.7335794
  50.2131622  58.0666968  55.4325794  51.1561622  57.9216968  55.9595794
  50.3161622  57.3736968  54.0745794  49.3611622  57.4686968  53.5555794
  51.0671622  57.8816968  53.4955794  50.6851622  55.9236968  54.1585794
  50.5651622  55.0636968  53.0885794  50.2251622  55.3186968  52.1705794
  50.9661622  53.8576968  53.4475794  50.9881622  52.9836968  52.8115794
  51.3411622  53.9026968  54.7145794  51.1771622  55.1846968  55.1815794
  51.3981622  55.5346968  56.1765794  50.0261622  59.5676968  55.2325794
  50.8521622  60.2186968  54.5985794  48.9381622  60.1086968  55.7725794
  48.2881622  59.5306968  56.2885794  48.6851622  61.5446968  55.7205794
  49.4461622  62.0486968  55.1275794  47.3271622  61.8256968  55.0715794
  46.5871622  61.1496968  55.5025794  47.0071622  62.8466968  55.2845794
  47.3381622  61.6726968  53.5545794  47.8381622  62.5366968  53.1145794
  47.9101622  60.7826968  53.2935794  45.9391622  61.5456968  52.9635794
  45.4431622  60.6616968  53.3665794  45.3561622  62.4216968  53.2515794
  45.9811622  61.4816968  51.5035794  45.7511622  62.3306968  51.0015794
  46.3151622  60.3966968  50.8085794  46.6421622  59.2736968  51.4345794
  46.6561622  59.2486968  52.4425794  46.9081622  58.4626968  50.8965794
  46.3291622  60.4326968  49.4835794  46.0941622  61.2926968  49.0085794
  46.5801622  59.6086968  48.9575794  48.7551622  62.1536968  57.1175794
  48.3401622  63.2936968  57.3315794  49.2861622  61.3786968  58.0615794
  49.5881622  60.4436968  57.8295794  49.4751622  61.8346968  59.4345794
  48.5171622  62.2006968  59.8085794  49.9271622  60.6766968  60.3355794
  49.3041622  59.8106968  60.1085794  50.9641622  60.4066968  60.1345794
  49.7411622  60.9706968  61.8195794  49.6061622  62.1556968  62.1895794
  49.7321622  60.0086968  62.6205794  50.5001622  62.9596968  59.4505794
  51.6951622  62.7176968  59.2725794  50.0291622  64.1866968  59.6595794
  49.0371622  64.3216968  59.7895794  50.8971622  65.3586968  59.6095794
  51.4311622  65.3346968  58.6615794  50.0651622  66.6396968  59.6715794
  49.4571622  66.6226968  60.5775794  50.7431622  67.4926968  59.7345794
  49.1721622  66.8386968  58.4685794  49.7871622  66.9276968  57.5725794
  48.5131622  65.9766968  58.3575794  48.3201622  68.0796968  58.6085794
  47.7281622  68.0096968  59.5225794  48.9671622  68.9566968  58.6675794
  47.3841622  68.2236968  57.4205794  47.9651622  68.2976968  56.4995794
  46.7661622  67.3256968  57.3685794  46.4951622  69.4106968  57.5545794
  46.4081622  69.6606968  58.5295794  46.8911622  70.1896968  57.0455794
  45.5811622  69.1926968  57.1795794  51.9401622  65.3626968  60.7235794
  52.9871622  65.9976968  60.5935794  51.6601622  64.6476968  61.8115794
  50.8021622  64.1156968  61.8585794  52.5841622  64.5856968  62.9415794
  53.0751622  65.5536968  63.0515794  51.8431622  64.2766968  64.2735794
  52.5631622  64.2546968  65.0925794  50.8071622  65.3506968  64.5775794
  50.3381622  65.1376968  65.5385794  51.2911622  66.3266968  64.6315794
  50.0351622  65.3716968  63.8075794  51.1891622  63.0036968  64.1925794
  50.5771622  62.9886968  63.4465794  53.6721622  63.5386968  62.7045794
  54.2931622  63.0486968  63.6455794  53.8941622  63.2046968  61.4365794
  53.3321622  63.6266968  60.7125794  54.9091622  62.2336968  61.0325794
  55.6981622  62.1936968  61.7835794  54.3051622  60.8116968  60.8345794
  53.4661622  60.8856968  60.1435794  55.3311622  59.8636968  60.2225794
  54.9301622  58.8636968  60.2535794  55.5151622  60.1176968  59.1795794
  56.2731622  59.8956968  60.7705794  53.7721622  60.2326968  62.1515794
  53.0961622  60.9346968  62.6345794  53.1681622  59.3576968  61.9125794
  54.8431622  59.7966968  63.1295794  54.3861622  59.6096968  64.1015794
  55.2861622  58.8646968  62.7855794  55.6061622  60.5636968  63.2495794
  55.5601622  62.6866968  59.7255794  56.7651622  62.5306968  59.5205794
  54.7481622  63.2676968  58.8475794  53.7661622  63.3606968  59.0655794
  55.1691622  63.5436968  57.4805794  56.1541622  63.1126968  57.3025794
  54.2051622  62.8706968  56.4985794  53.2181622  63.3216968  56.6125794
  54.5401622  63.0656968  55.4795794  54.0721622  61.3796968  56.6635794
  53.0341622  60.7036968  57.2405794  52.1321622  61.1536968  57.6165794
  53.2641622  59.3486968  57.1925794  52.6371622  58.6556968  57.5775794
  54.4701622  59.1256968  56.5795794  55.1291622  57.9296968  56.3045794
  54.7051622  56.9776968  56.5795794  56.3391622  58.0076968  55.6715794
  56.8731622  57.0976968  55.4405794  56.9001622  59.2406968  55.3125794
  57.8581622  59.2626968  54.8115794  56.2461622  60.4306968  55.5845794
  56.6911622  61.3766968  55.3145794  55.0071622  60.3826968  56.2315794
  55.2701622  65.0326968  57.1385794  55.7511622  65.3936968  56.0635794
  54.8151622  65.8926968  58.0415794  54.4201622  65.5616968  58.9095794
  54.7981622  67.3196968  57.7785794  55.0181622  67.8486968  58.7055794
  55.5561622  67.5996968  57.0455794  53.4351622  67.7616968  57.2865794
  52.4981622  66.9666968  57.2535794  53.3141622  69.0296968  56.9055794
  54.1071622  69.6526968  56.9475794  52.0361622  69.5536968  56.4325794
  51.2211622  69.0606968  56.9635794  51.9291622  71.0576968  56.7005794
  52.7741622  71.5686968  56.2365794  51.0121622  71.4346968  56.2465794
  51.8881622  71.3866968  58.1805794  51.5491622  70.4926968  58.9865794
  52.1901622  72.5436968  58.5385794  51.8461622  69.2766968  54.9465794
  50.7211622  69.2706968  54.4465794  52.9531622  69.0406968  54.2505794
  53.8501622  69.0236968  54.7165794  52.9271622  68.7926968  52.8135794
  52.1591622  69.4186968  52.3585794  54.2741622  69.1816968  52.1885794
  54.2461622  68.9996968  51.1155794  54.4251622  70.2526968  52.3315794
  55.4511622  68.4476968  52.8195794  56.4801622  68.2706968  52.1325794
  55.3461622  68.0416968  53.9965794  52.5951622  67.3346968  52.4955794
  53.2871622  66.6896968  51.7065794  51.5281622  66.8206968  53.1015794
  50.9931622  67.3916968  53.7415794  51.1711622  65.4136968  52.9515794
  52.0561622  64.8106968  53.1625794  50.0621622  64.9986968  53.9475794
  49.6261622  64.0556968  53.6165794  50.6481622  64.7656968  55.3345794
  49.9051622  64.9666968  56.1075794  50.9781622  63.7286968  55.4215794
  51.5091622  65.4156968  55.4955794  48.9461622  66.0406968  53.9925794
  48.1291622  65.6536968  54.6035794  49.2871622  66.9686968  54.4485794
  48.5441622  66.2416968  53.0165794  50.7141622  65.0656968  51.5365794
  51.1061622  64.0336968  50.9915794  49.8981622  65.9276968  50.9375794
  49.6201622  66.7726968  51.4145794  49.3071622  65.6246968  49.6375794
  48.9501622  64.5936968  49.6505794  48.1041622  66.5366968  49.3735794
  48.4531622  67.5706968  49.3905794  47.7111622  66.3476968  48.3735794
  46.9691622  66.4046968  50.3915794  47.3301622  66.5376968  51.4015794
  46.2661622  67.2176968  50.2025794  46.1941622  65.0986968  50.2705794
  46.3861622  64.3676968  49.2735794  45.3821622  64.8046968  51.1765794
  50.3191622  65.7456968  48.4955794  50.0831622  65.2426968  47.3955794
  51.4471622  66.3956968  48.7635794  51.6181622  66.7496968  49.6935794
  52.4471622  66.6586968  47.7315794  51.9381622  66.8976968  46.7965794
  53.2881622  67.8826968  48.1225794  52.6921622  68.7866968  47.9925794
  53.5291622  67.7926968  49.1805794  54.6101622  68.0386968  47.3765794
  55.1661622  67.1046968  47.3825794  54.4041622  68.3026968  46.3375794
  55.5291622  69.0716968  48.0105794  55.9771622  68.8536968  49.1595794
  55.8011622  70.1016968  47.3565794  53.3371622  65.4336968  47.4915794
  53.6721622  64.7026968  48.4255794  53.7131622  65.2116968  46.2335794
  53.4271622  65.8516968  45.5075794  54.4961622  64.0386968  45.8545794
  54.2551622  63.2176968  46.5315794  54.1041622  63.5866968  44.4445794
  53.0181622  63.4846968  44.4065794  54.3741622  64.3566968  43.7205794
  54.7061622  62.2706968  44.0355794  54.0991622  61.0786968  44.3865794
  53.2041622  61.0976968  44.9585794  54.6501622  59.8646968  44.0085794
  54.1571622  58.9406968  44.2775794  55.8141622  59.8356968  43.2725794
  56.2451622  58.8886968  42.9895794  56.4231622  61.0146968  42.9115794
  57.3091622  60.9706968  42.3055794  55.8701622  62.2246968  43.2885794
  56.3421622  63.1416968  42.9685794  56.0051622  64.2886968  45.9245794
  56.6201622  64.7066968  44.9455794  56.5991622  64.0256968  47.0835794
  56.0541622  63.6756968  47.8595794  58.0411622  64.1746968  47.2465794
  58.4991622  64.5456968  46.3315794  58.3671622  65.2146968  48.3225794
  57.7051622  65.0906968  49.1815794  59.3841622  64.9866968  48.6415794
  58.3591622  66.6596968  47.8545794  58.6791622  66.7286968  46.8145794
  57.3471622  67.0456968  47.9315794  59.3021622  67.5076968  48.7025794
  60.3101622  67.4126968  48.3025794  59.0101622  68.5536968  48.5965794
  59.2421622  67.1476968  50.1195794  58.4031622  67.4116968  50.6225794
  60.2161622  66.5216968  50.7765794  61.3381622  66.1916968  50.1465794
  61.4331622  66.3836968  49.1605794  62.0821622  65.7246968  50.6425794
  60.0711622  66.2296968  52.0625794  59.2211622  66.5016968  52.5375794
  60.8101622  65.7646968  52.5655794  58.7091622  62.8556968  47.6075794
  58.7241622  62.4636968  48.7725794  59.2741622  62.1666968  46.6065794
  59.1381622  62.4586968  45.1695794  59.7971622  63.2826968  44.8925794
  58.1071622  62.6656968  44.8925794  59.5981622  61.1816968  44.5205794
  60.0731622  61.3626968  43.5615794  58.7481622  60.5096968  44.3985794
  60.5581622  60.5706968  45.4605794  61.5341622  61.0386968  45.3275794
  60.6361622  59.4926968  45.3135794  59.9991622  60.9126968  46.8435794
  59.2961622  60.1456968  47.1605794  61.1321622  61.0366968  47.8665794
  61.4961622  60.0366968  48.4835794  61.6581622  62.2436968  48.0595794
  61.3171622  63.0316968  47.5255794  62.8301622  62.4486968  48.9105794
  63.6111622  61.7576968  48.5945794  63.3631622  63.8746968  48.7365794
  62.5461622  64.5756968  48.8125794  64.0661622  64.0886968  49.5425794
  64.1151622  64.1096968  47.4285794  64.7141622  65.0156968  47.5355794
  64.7971622  63.2776968  47.2445794  63.1971622  64.3016968  46.2305794
  62.0311622  64.7176968  46.4215794  63.6471622  64.0406968  45.0925794
  62.5721622  62.1706968  50.3965794  63.4981622  62.2226968  51.2075794
  61.3211622  61.8776968  50.7495794  60.5931622  61.8596968  50.0485794
  60.9791622  61.4956968  52.1185794  61.3641622  62.2536968  52.8025794
  59.4611622  61.4026968  52.2975794  59.1131622  60.5576968  51.7005794
  59.2391622  61.1846968  53.3435794  58.6781622  62.6326968  51.8755794
  58.8591622  63.4196968  52.6085794  59.0151622  63.0326968  50.9355794
  57.1911622  62.3246968  51.8745794  57.0391622  61.3586968  51.3985794
  56.8321622  62.2316968  52.8995794  56.4091622  63.2976968  51.1185794
  56.2991622  63.1276968  50.1285794  55.7981622  64.3506968  51.6545794
  55.8811622  64.5766968  52.9595794  55.4541622  65.4076968  53.3485794
  56.3881622  63.9476968  53.5595794  55.1041622  65.1796968  50.8865794
  54.9651622  64.9916968  49.9045794  54.8071622  66.0626968  51.2665794
  61.6171622  60.1576968  52.4785794  61.9501622  59.9016968  53.6365794
  61.7771622  59.3066968  51.4695794  61.4861622  59.5766968  50.5405794
  62.2981622  57.9576968  51.6585794  62.1851622  57.6626968  52.7025794
  61.5061622  56.9576968  50.8055794  61.5651622  57.2566968  49.7575794
  61.9541622  55.9666968  50.8925794  60.0571622  56.8466968  51.1955794
  59.1111622  57.7086968  50.6655794  59.4041622  58.4656968  49.9525794
  57.7791622  57.6126968  51.0345794  57.0271622  58.2356968  50.6355794
  57.3831622  56.6506968  51.9425794  56.3451622  56.5656968  52.2265794
  58.3161622  55.7856968  52.4795794  58.0101622  55.0376968  53.1965794
  59.6441622  55.8876968  52.1085794  60.3671622  55.2046968  52.5325794
  63.7831622  57.8856968  51.3225794  64.3321622  56.8016968  51.1165794
  64.4261622  59.0486968  51.2715794  63.9271622  59.9106968  51.4415794
  65.8561622  59.1316968  51.0015794  66.0731622  58.6146968  50.0665794
  66.2861622  60.5966968  50.8565794  65.7481622  61.0396968  50.0175794
  65.9851622  61.1156968  51.7665794  67.7781622  60.8236968  50.6425794
  68.3451622  60.3556968  51.4465794  68.0731622  60.3646968  49.6965794
  68.1451622  62.3006968  50.6365794  67.5001622  63.0786968  51.3735794
  69.0751622  62.6836968  49.8925794  66.6261622  58.4346968  52.1205794
  67.7071622  57.8866968  51.9035794  66.0421622  58.4376968  53.3155794
  65.1541622  58.9026968  53.4405794  66.6391622  57.7626968  54.4595794
  67.4571622  57.1366968  54.1155794  67.3051622  58.7786968  55.3825794
  67.7811622  59.5376968  54.7585794  66.5751622  59.2936968  56.0085794
  68.3741622  58.1576968  56.2455794  68.2551622  57.0066968  56.6675794
  69.4361622  58.9106968  56.5035794  69.4891622  59.8476968  56.1315794
  70.1861622  58.5366968  57.0645794  65.6151622  56.9396968  55.2405794
  64.8331622  57.4886968  56.0185794  65.6261622  55.6126968  55.0345794
  66.5771622  54.9176968  54.1505794  67.5271622  54.7706968  54.6665794
  66.7181622  55.4316968  53.1995794  65.9031622  53.6026968  53.9005794
  66.6281622  52.8176968  53.6805794  65.2081622  53.7096968  53.0665794
  65.1371622  53.3106968  55.1435794  65.8031622  52.8286968  55.8605794
  64.2851622  52.6606968  54.9415794  64.6791622  54.6806968  55.6595794
  63.6691622  54.8976968  55.3075794  64.7341622  54.7246968  57.1825794
  63.6911622  54.6996968  57.8375794  65.9501622  54.7896968  57.7195794
  66.7541622  54.8296968  57.1095794  66.1911622  54.8566968  59.1575794
  65.9601622  53.8816968  59.5875794  67.6711622  55.1516968  59.4135794
  68.2621622  54.2546968  59.2275794  68.0061622  55.9396968  58.7485794
  67.8861622  55.6056968  60.7385794  67.4141622  56.4326968  60.8665794
  65.3311622  55.8976968  59.8745794  64.9321622  55.6966968  61.0205794
  65.0421622  57.0006968  59.1895794  65.3691622  57.0996968  58.2395794
  64.2831622  58.1056968  59.7725794  64.8231622  58.4626968  60.6505794
  64.1861622  59.2586968  58.7795794  63.6701622  60.0996968  59.2445794
  65.1871622  59.5766968  58.4865794  63.6381622  58.9536968  57.8875794
  62.8871622  57.6846968  60.2155794  62.5261622  57.8346968  61.3835794
  62.1181622  57.1556968  59.2665794  62.5161622  57.0096968  58.3515794
  60.7071622  56.8206968  59.4585794  60.1851622  57.7726968  59.4735794
  60.1611622  56.0516968  58.2415794  60.5341622  55.0266968  58.2895794
  58.6371622  56.0036968  58.2755794  58.2841622  55.6136968  59.2155794
  58.2271622  57.0056968  58.1385794  58.2581622  55.3506968  57.4895794
  60.6851622  56.6626968  56.9405794  60.2551622  57.6556968  56.8025794
  61.7691622  56.7566968  56.9315794  60.3951622  55.8216968  55.7235794
  59.3211622  55.7416968  55.5495794  60.8491622  56.2946968  54.8515794
  60.8261622  54.8256968  55.8445794  60.4161622  55.9796968  60.6985794
  60.9801622  54.8946968  60.8665794  59.5191622  56.4766968  61.5665794
  58.8631622  57.7936968  61.4835794  58.0571622  57.7636968  60.7495794
  59.5691622  58.5946968  61.2645794  58.3081622  57.9826968  62.8625794
  57.4321622  58.6226968  62.8545794  59.0781622  58.4316968  63.4915794
  58.0081622  56.6076968  63.3725794  57.0081622  56.3216968  63.0445794
  58.0651622  56.5646968  64.4605794  59.0591622  55.6996968  62.7215794
  59.8911622  55.5266968  63.4055794  58.4371622  54.3876968  62.2665794
  57.9251622  54.3156968  61.1465794  58.4811622  53.3576968  63.1015794
  58.9191622  53.4356968  64.0065794  57.8621622  52.1076968  62.6975794
  58.1081622  51.9676968  61.6495794  58.3451622  50.9336968  63.5495794
  58.7631622  51.2836968  64.4955794  57.4941622  50.2926968  63.7865794
  59.3651622  50.0696968  62.8195794  60.3361622  50.5646968  62.8805794
  59.4511622  49.1046968  63.3195794  59.0011622  49.8516968  61.3505794
  57.9511622  49.2896968  61.0305794  59.8661622  50.3176968  60.4525794
  59.7331622  50.1176968  59.4595794  60.6871622  50.8256968  60.7665794
  56.3511622  52.2316968  62.7605794  55.8091622  52.9936968  63.5685794
  55.6991622  51.4936968  61.8645794  56.2361622  50.8886968  61.2575794
  54.2471622  51.4596968  61.7285794  54.0001622  50.6896968  61.0005794
  53.5851622  51.0966968  63.0655794  53.6871622  51.8946968  63.7985794
  52.5161622  50.9746968  62.8915794  54.0751622  49.8086968  63.6515794
  54.6661622  48.8206968  62.8925794  54.9991622  47.8076968  63.6715794
  55.4751622  46.8916968  63.3505794  54.6531622  48.1046968  64.9105794
  54.7871622  47.5086968  65.7165794  54.0741622  49.3516968  64.9265794
  53.7241622  49.8646968  65.8025794  53.6971622  52.7836968  61.1995794
  52.4911622  53.0236968  61.2445794  54.5741622  53.6386968  60.6855794
  55.5621622  53.4296968  60.6865794  54.1281622  54.8886968  60.0765794
  53.1881622  55.2096968  60.5245794  55.1411622  55.9966968  60.3125794
  54.7401622  56.8946968  59.8615794  55.3321622  56.1416968  61.3725794
  56.0761622  55.7506968  59.8145794  53.8921622  54.6846968  58.5855794
  53.1961622  55.4666968  57.9415794  54.4751622  53.6146968  58.0535794
  55.0411622  53.0146968  58.6345794  54.3781622  53.2846968  56.6385794
  53.5701622  53.8536968  56.1805794  55.6811622  53.6506968  55.9185794
  55.8791622  54.7106968  56.0855794  56.5101622  53.0966968  56.3625794
  55.6531622  53.4186968  54.4315794  54.8191622  54.1646968  53.6125794
  54.1631622  54.9076968  54.0415794  54.8071622  53.9606968  52.2445794
  54.1581622  54.5366968  51.6125794  55.6391622  53.0086968  51.6805794
  55.6341622  52.8456968  50.6135794  56.4781622  52.2646968  52.4825794
  57.1281622  51.5206968  52.0445794  56.4881622  52.4746968  53.8495794
  57.1521622  51.8906968  54.4705794  54.0681622  51.8006968  56.4895794
  54.9521622  50.9536968  56.6325794  52.8071622  51.4866968  56.2065794
  52.1251622  52.2216968  56.0705794  52.3591622  50.0956968  56.1895794
  53.2151622  49.4296968  56.1415794  51.5351622  49.8056968  57.4535794
  50.8171622  50.6106968  57.6205794  50.9731622  48.8776968  57.3365794
  52.3711622  49.6016968  58.7115794  52.8851622  50.5286968  58.9675794
  51.6841622  49.3496968  59.5195794  53.3951622  48.4956968  58.4795794
  52.9111622  47.7096968  57.9705794  54.2081622  48.8536968  57.8545794
  54.0321622  48.0266968  59.7645794  54.7361622  47.2216968  59.5505794
  54.5771622  48.8576968  60.2135794  53.0011622  47.5456968  60.7115794
  52.6161622  46.6836968  60.3615794  53.4271622  47.3636968  61.6115794
  52.2691622  48.2316968  60.8285794  51.5401622  49.7086968  54.9545794
  50.3891622  49.2956968  55.0835794  52.1361622  49.8126968  53.7545794
  53.5141622  50.2306968  53.4415794  54.2531622  49.6186968  53.9585794
  53.6431622  51.2866968  53.6795794  53.6041622  50.0396968  51.9465794
  53.9991622  49.0676968  51.7415794  54.2281622  50.7916968  51.4715794
  52.2081622  50.0966968  51.4335794  52.1041622  49.5816968  50.4775794
  51.9001622  51.1386968  51.3345794  51.3991622  49.4356968  52.5445794
  50.3851622  49.8376968  52.5555794  51.3511622  47.9236968  52.3455794
  50.6241622  47.4436968  51.4745794  52.1211622  47.1876968  53.1425794
  52.7021622  47.6336968  53.8365794  52.1931622  45.7356968  53.0075794
  51.5391622  45.3996968  52.2035794  53.6161622  45.3006968  52.6485794
  54.2911622  45.6196968  53.4445794  53.6771622  44.2186968  52.6055794
  54.1011622  45.8476968  51.3395794  53.6911622  45.2796968  50.1425794
  53.0201622  44.4336968  50.1505794  54.1311622  45.7856968  48.9315794
  53.8011622  45.3386968  48.0055794  54.9911622  46.8666968  48.9105794
  55.3441622  47.2546968  47.9675794  55.4061622  47.4426968  50.0995794
  56.0851622  48.2826968  50.0875794  54.9621622  46.9336968  51.3045794
  55.3091622  47.3746968  52.2265794  51.7331622  45.0046968  54.2665794
  52.0761622  43.8416968  54.4755794  50.9491622  45.6816968  55.0975794
  50.6901622  46.6356968  54.8885794  50.3851622  45.0416968  56.2695794
  49.5271622  45.6146968  56.6125794  50.0341622  44.0416968  56.0105794
  51.3871622  44.9476968  57.3995794  52.3551622  45.7036968  57.4325794
  51.1661622  44.0146968  58.3225794  50.3811622  43.3836968  58.2395794
  52.0041622  43.9246968  59.5105794  52.9911622  44.3306968  59.2845794
  51.4021622  44.7746968  60.6305794  51.2891622  45.8066968  60.3215794
  50.3831622  44.4186968  60.7955794  52.1591622  44.6376968  61.9345794
  53.2711622  45.1426968  62.0725794  51.5571622  43.9536968  62.9025794
  52.0221622  43.8446968  63.7945794  50.6481622  43.5416968  62.7555794
  52.2311622  42.5116968  60.0305794  51.3561622  41.6466968  59.9385794
  53.4221622  42.2906968  60.5775794  54.1061622  43.0326968  60.6055794
  53.7111622  41.0876968  61.3325794  54.6081622  41.2526968  61.9295794
  52.8891622  40.9076968  62.0265794  53.9241622  39.8546968  60.4885794
  54.3321622  39.9406968  59.3315794  53.6391622  38.6966968  61.0755794
  53.3301622  38.6856968  62.0405794  53.8131622  37.4236968  60.3905794
  54.8141622  37.3936968  59.9585794  53.6861622  36.2656968  61.3805794
  53.7821622  35.3296968  60.8275794  54.5181622  36.3246968  62.0835794
  52.3901622  36.2626968  62.1695794  52.3041622  37.1526968  62.7655794
  51.5501622  36.2376968  61.4805794  52.2711622  35.0576968  63.0825794
  53.0551622  34.1106968  62.9885794  51.2841622  35.0836968  63.9705794
  51.1711622  34.3136968  64.6085794  50.6921622  35.8986968  64.0355794
  52.8071622  37.2646968  59.2585794  52.9021622  36.3376968  58.4505794
  51.8431622  38.1766968  59.2045794  51.8121622  38.9156968  59.8925794
  50.8291622  38.1546968  58.1635794  51.0111622  37.3286968  57.4755794
  49.4481622  37.9526968  58.7785794  49.2201622  38.7916968  59.4395794
  48.7211622  37.9836968  57.9705794  49.3581622  36.6706968  59.5795794
  50.1121622  35.9986968  59.2375794  49.5591622  36.8886968  60.6275794
  47.9931622  36.0346968  59.4725794  48.0231622  35.0606968  59.9625794
  47.2771622  36.6746968  59.9875794  47.5721622  35.8676968  58.0835794
  48.2351622  36.1256968  57.3685794  46.3881622  35.3856968  57.7225794
  45.5111622  35.0256968  58.6495794  45.7981622  35.0156968  59.6175794
  44.5361622  34.9846968  58.4455794  46.0751622  35.2716968  56.4385794
  46.7671622  35.4396968  55.7235794  45.2071622  34.8176968  56.1925794
  50.8661622  39.4206968  57.3115794  49.8611622  39.8146968  56.7165794
  52.0351622  40.0526968  57.2625794  52.8151622  39.7076968  57.8045794
  52.3061622  41.0826968  56.2695794  51.4401622  41.7396968  56.1815794
  53.4971622  41.9296968  56.6745794  53.7211622  42.6846968  55.9245794
  53.3071622  42.4256968  57.6175794  54.3761622  41.2926968  56.7875794
  52.5511622  40.4086968  54.9225794  52.6921622  39.1826968  54.8505794
  52.6071622  41.2096968  53.8615794  52.7031622  40.6786968  52.5055794
  53.9031622  39.7576968  52.2975794  55.0451622  40.1406968  52.5465794
  52.7581622  41.8216968  51.4885794  52.7721622  41.2356968  49.7855794
  52.5521622  42.2066968  53.9815794  51.7921622  40.1096968  52.3125794
  51.8961622  42.4736968  51.6345794  53.6711622  42.3866968  51.6535794
  53.6241622  38.5406968  51.8365794  52.6631622  38.2776968  51.6745794
  54.6631622  37.5586968  51.5445794  55.4201622  37.6176968  52.3285794
  54.1011622  36.1196968  51.5155794  53.3821622  36.0096968  52.3295794
  53.3981622  35.8476968  50.2015794  52.7891622  34.9476968  50.2835794
  52.7181622  36.6646968  49.9585794  54.1081622  35.7106968  49.3845794
  55.2181622  35.0926968  51.7205794  56.0201622  35.2336968  50.9995794
  55.6361622  35.2356968  52.7175794  54.7531622  33.6636968  51.6015794
  54.5091622  33.4136968  50.5695794  55.5451622  32.9986968  51.9355794
  53.8781622  33.5026968  52.2325794  55.3251622  37.8576968  50.2015794
  56.4381622  37.4026968  49.9315794  54.6331622  38.6256968  49.3625794
  53.7301622  38.9816968  49.6365794  55.1201622  38.9266968  48.0305794
  55.8871622  38.2136968  47.7285794  54.2851622  38.8276968  47.3375794
  55.6821622  40.3296968  47.8965794  55.8381622  40.8246968  46.7825794
  55.9991622  40.9626968  49.0265794  55.8551622  40.4996968  49.9135794
  56.4541622  42.3546968  49.0365794  55.6631622  42.9696968  48.6035794
  56.6871622  42.8346968  50.4675794  55.7261622  42.8546968  50.9805794
  57.3401622  42.1286968  50.9845794  57.3181622  44.2166968  50.5295794
  58.3181622  44.1856968  50.0955794  56.7211622  44.9176968  49.9505794
  57.4711622  44.7416968  51.9395794  56.8751622  44.2186968  52.8865794
  58.2751622  45.7866968  52.0885794  58.4241622  46.1616968  53.0125794
  58.7291622  46.1936968  51.2855794  57.7251622  42.5936968  48.2235794
  57.8141622  43.5696968  47.4755794  58.7131622  41.7196968  48.3775794
  58.6081622  40.9376968  49.0085794  59.9581622  41.8776968  47.6385794
  60.2821622  42.9166968  47.7165794  61.0631622  40.9946968  48.2185794
  61.1991622  41.3236968  49.2505794  60.7381622  39.9526968  48.2175794
  62.3711622  41.1156968  47.4595794  62.2701622  40.6396968  46.4845794
  62.5981622  42.1726968  47.3145794  63.5431622  40.4806968  48.1745794
  64.6581622  40.4606968  47.6515794  63.3021622  39.9616968  49.3735794
  62.3711622  39.9766968  49.7605794  64.0541622  39.5256968  49.8835794
  59.7451622  41.5556968  46.1665794  60.3591622  42.1686968  45.2955794
  58.8651622  40.5946968  45.8995794  58.3881622  40.1316968  46.6585794
  58.4821622  40.2356968  44.5375794  59.3691622  39.9166968  43.9995794
  57.4911622  39.0646968  44.5615794  57.8981622  38.2786968  45.2005794
  56.5461622  39.3746968  44.9945794  57.2031622  38.4756968  43.2075794
  56.1911622  38.9896968  42.4055794  55.6031622  39.8266968  42.7525794
  55.9231622  38.4456968  41.1545794  55.1331622  38.8586968  40.5445794
  56.6661622  37.3706968  40.6975794  56.4581622  36.9386968  39.7305794
  57.6771622  36.8456968  41.4905794  58.2591622  36.0086968  41.1345794
  57.9381622  37.3966968  42.7395794  58.7201622  36.9676968  43.3505794
  57.8741622  41.4366968  43.8025794  58.2301622  41.7286968  42.6575794
  56.9621622  42.1326968  44.4735794  56.7051622  41.8526968  45.4095794
  56.2591622  43.2586968  43.8765794  55.7951622  42.9226968  42.9475794
  55.1571622  43.7456968  44.8015794  54.6281622  44.5786968  44.3365794
  54.4481622  42.9366968  44.9825794  55.5751622  44.0726968  45.7545794
  57.2091622  44.4026968  43.5465794  57.2011622  44.9296968  42.4295794
  58.0291622  44.7756968  44.5245794  58.0001622  44.2946968  45.4135794
  58.9121622  45.9316968  44.3955794  58.3371622  46.7596968  43.9865794
  59.4551622  46.3256968  45.7675794  59.9371622  45.4536968  46.2145794
  60.2141622  47.0996968  45.6405794  58.3761622  46.8466968  46.7225794
  57.5761622  46.1106968  46.7985794  58.9211622  47.0576968  48.1295794
  58.1231622  47.4006968  48.7875794  59.3141622  46.1176968  48.5175794
  59.7171622  47.8026968  48.1135794  57.7701622  48.1286968  46.1785794
  57.1171622  48.5716968  46.9305794  58.5541622  48.8476968  45.9345794
  57.1671622  47.9276968  45.2945794  60.0641622  45.6906968  43.4195794
  60.5251622  46.6216968  42.7565794  60.5251622  44.4476968  43.3255794
  60.1301622  43.7086968  43.8905794  61.5961622  44.1216968  42.3925794
  62.4091622  44.8356968  42.5325794  62.1421622  42.7166968  42.6455794
  62.4081622  42.6306968  43.6995794  61.3681622  41.9776968  42.4355794
  63.3651622  42.3946968  41.8435794  64.5861622  42.9896968  42.0805794
  64.7651622  43.6956968  42.7785794  65.4741622  42.5176968  41.2255794
  66.5161622  42.7976968  41.1725794  64.8751622  41.6396968  40.4415794
  63.5531622  41.5466968  40.8065794  62.8091622  40.9096968  40.3545794
  61.0911622  44.2366968  40.9655794  61.7571622  44.8016968  40.0985794
  59.9031622  43.6916968  40.7355794  59.4081622  43.2326968  41.4885794
  59.2681622  43.7426968  39.4285794  59.9511622  43.3216968  38.6895794
  57.9831622  42.9116968  39.4315794  58.2111622  41.8786968  39.6625794
  57.3471622  43.2916968  40.2325794  57.2081622  42.9716968  38.1325794
  57.0351622  44.0046968  37.8315794  57.7881622  42.4856968  37.3475794
  55.8471622  42.3076968  38.2265794  55.4701622  41.8556968  39.3295794
  55.1491622  42.2406968  37.1925794  54.3261622  41.7776968  37.3525794
  58.9651622  45.1816968  39.0415794  59.3301622  45.6356968  37.9595794
  58.2971622  45.8916968  39.9435794  58.0271622  45.4636968  40.8175794
  57.8881622  47.2646968  39.7015794  57.2211622  47.2716968  38.8405794
  57.1231622  47.8086968  40.9045794  56.8371622  48.8446968  40.7225794
  56.2191622  47.2196968  41.0605794  57.7441622  47.7556968  41.7985794
  59.0841622  48.1526968  39.3855794  59.0271622  48.9776968  38.4775794
  60.1711622  47.9846968  40.1295794  60.1891622  47.2916968  40.8645794
  61.3471622  48.8166968  39.9095794  61.0411622  49.8636968  39.8975794
  62.3891622  48.6406968  41.0225794  62.7271622  47.6036968  41.0445794
  63.5831622  49.5546968  40.7845794  63.9841622  49.4466968  39.7815794
  63.3081622  50.5916968  40.9635794  64.3691622  49.2836968  41.4905794
  61.7921622  48.9706968  42.2805794  61.1441622  48.2916968  42.4895794
  61.9691622  48.4926968  38.5605794  62.3111622  49.3956968  37.7985794
  62.0981622  47.2006968  38.2735794  61.7941622  46.5066968  38.9425794
  62.6051622  46.7346968  36.9885794  63.6501622  47.0346968  36.8995794
  62.5351622  45.2066968  36.9165794  63.3421622  44.7986968  37.5245794
  61.6071622  44.8836968  37.3815794  62.5781622  44.5616968  35.5285794
  61.7651622  44.9486968  34.9145794  63.8921622  44.8526968  34.8175794
  64.7211622  44.4256968  35.3815794  63.8741622  44.4106968  33.8205794
  64.0411622  45.9256968  34.7245794  62.3521622  43.0666968  35.6435794
  62.3321622  42.6186968  34.6505794  63.1461622  42.6036968  36.2325794
  61.3931622  42.8956968  36.1285794  61.8371622  47.3516968  35.8205794
  62.4321622  47.9416968  34.9195794  60.5151622  47.2186968  35.8485794
  60.0761622  46.7276968  36.6135794  59.6791622  47.7016968  34.7585794
  60.0701622  47.3056968  33.8185794  58.2301622  47.2226968  34.9145794
  57.8881622  47.4446968  35.9275794  57.3221622  47.9456968  33.9315794
  56.3481622  47.4566968  33.9055794  57.1631622  48.9726968  34.2515794
  57.7511622  47.9276968  32.9295794  58.1631622  45.7236968  34.7045794
  58.9921622  45.2146968  35.1975794  57.2511622  45.3586968  35.1535794
  58.1891622  45.4906968  33.6395794  59.7011622  49.2216968  34.6655794
  59.9191622  49.7806968  33.5865794  59.4851622  49.8866968  35.7965794
  59.3051622  49.3826968  36.6525794  59.5511622  51.3436968  35.8475794
  58.8041622  51.7316968  35.1575794  59.2361622  51.8516968  37.2565794
  58.2871622  51.4046968  37.5575794  60.0031622  51.4666968  37.9315794
  59.1231622  53.3596968  37.4795794  60.0931622  53.8216968  37.2915794
  58.1001622  53.9766968  36.5345794  57.9361622  55.0196968  36.7975794
  58.4701622  53.9416968  35.5105794  57.1521622  53.4416968  36.5995794
  58.7421622  53.6296968  38.9215794  58.8091622  54.6986968  39.1255794
  57.7201622  53.2976968  39.1045794  59.4081622  53.0986968  39.6005794
  60.9281622  51.8216968  35.4025794  61.0661622  52.9076968  34.8465794
  61.9431622  50.9966968  35.6425794  61.7781622  50.1166968  36.1095794
  63.2951622  51.3146968  35.2325794  63.5871622  52.2846968  35.6355794
  63.9671622  50.5496968  35.6225794  63.3901622  51.3356968  33.7255794
  63.8451622  52.3146968  33.1315794  62.9381622  50.2486968  33.1105794
  62.5621622  49.4856968  33.6565794  62.9661622  50.1086968  31.6625794
  63.9821622  50.3046968  31.3175794  62.5991622  48.6786968  31.2685794
  61.5941622  48.4506968  31.6275794  62.5851622  48.6376968  30.1805794
  63.5611622  47.6306968  31.8045794  64.5691622  47.8816968  31.4725794
  63.5591622  47.6296968  32.8875794  63.1711622  45.9696968  31.2185794
  63.2861622  46.2066968  29.4465794  63.6591622  45.2906968  28.9855794
  62.2951622  46.4196968  29.0485794  63.9711622  47.0236968  29.2135794
  62.0341622  51.1056968  30.9705794  62.2921622  51.5176968  29.8415794
  60.9561622  51.4906968  31.6475794  60.7761622  51.1156968  32.5675794
  60.0301622  52.4816968  31.1045794  59.7001622  52.1526968  30.1175794
  58.7981622  52.6176968  32.0025794  59.1061622  52.5496968  33.0445794
  58.3681622  53.6086968  31.8485794  57.7071622  51.5996968  31.7225794
  57.2081622  51.8576968  30.7985794  58.1671622  50.6206968  31.5865794
  56.5211622  51.4576968  33.0745794  56.0751622  53.1716968  33.3225794
  55.2741622  53.2246968  34.0595794  56.9321622  53.7316968  33.6945794
  55.7381622  53.6026968  32.3795794  60.7051622  53.8406968  30.9365794
  60.5081622  54.5216968  29.9285794  61.5091622  54.2236968  31.9255794
  61.6401622  53.6206968  32.7265794  62.1671622  55.5296968  31.9305794
  61.4891622  56.2726968  31.5115794  62.5421622  55.9226968  33.3555794
  63.2291622  55.1876968  33.7755794  63.0331622  56.8846968  33.2945794
  61.3241622  56.0646968  34.2585794  60.8321622  55.1186968  34.3915794
  61.7311622  56.5746968  35.6255794  62.4851622  55.9166968  36.0595794
  62.1391622  57.5806968  35.5325794  60.8641622  56.5986968  36.2865794
  60.2831622  56.9726968  33.6115794  59.5211622  57.2296968  34.3465794
  60.7551622  57.8866968  33.2505794  59.7741622  56.4646968  32.7935794
  63.4061622  55.5646968  31.0445794  63.7521622  56.6076968  30.4885794
  64.0741622  54.4236968  30.9225794  63.7641622  53.6016968  31.4225794
  65.2281622  54.3156968  30.0485794  65.9331622  55.1126968  30.2935794
  65.9351622  52.9706968  30.2475794  66.3521622  52.9446968  31.2555794
  65.1971622  52.1716968  30.1695794  67.0461622  52.7126968  29.2455794
  66.6551622  52.7366968  28.2285794  67.8101622  53.4846968  29.3505794
  67.6741622  51.3536968  29.4485794  68.0751622  51.2976968  30.4565794
  66.9171622  50.5776968  29.3305794  68.7981622  51.1146968  28.4565794
  68.3881622  51.1556968  27.4465794  69.5481622  51.8996968  28.5675794
  69.4401622  49.7876968  28.6725794  68.7491622  49.0526968  28.6175794
  70.1461622  49.6236968  27.9685794  69.8801622  49.7656968  29.5825794
  64.8191622  54.4776968  28.5865794  65.5221622  55.1186968  27.8015794
  63.6681622  53.9156968  28.2325794  63.1141622  53.4296968  28.9235794
  63.3091622  53.7506968  26.8285794  64.2011622  53.8676968  26.2115794
  62.7981622  52.3256968  26.5985794  62.0521622  52.0726968  27.3505794
  62.3001622  52.2706968  25.6295794  63.8771622  51.2896968  26.5905794
  64.4351622  50.8066968  25.4255794  64.1571622  51.0626968  24.4865794
  65.3551622  49.9076968  25.7225794  65.9491622  49.3476968  25.0155794
  65.4151622  49.7886968  27.0365794  64.4981622  50.6426968  27.6025794
  64.3091622  50.7606968  28.6565794  62.2741622  54.7356968  26.2745794
  62.0241622  54.7416968  25.0695794  61.6691622  55.5586968  27.1275794
  61.8891622  55.5356968  28.1135794  60.5771622  56.4206968  26.6675794
  60.6981622  56.6046968  25.6025794  59.2291622  55.7156968  26.8655794
  59.0831622  55.5406968  27.9285794  58.4281622  56.3756968  26.5315794
  59.1031622  54.4096968  26.1355794  58.7601622  54.3796968  24.7945794
  58.5831622  55.3046968  24.2685794  58.6381622  53.1786968  24.1245794
  58.3471622  53.1676968  23.0845794  58.8551622  51.9896968  24.7945794
  58.7061622  51.0476968  24.2985794  59.1951622  52.0056968  26.1275794
  59.3221622  51.0876968  26.6775794  59.3121622  53.2096968  26.7945794
  59.5771622  53.2076968  27.8415794  60.4941622  57.7916968  27.3375794
  60.9301622  57.9786968  28.4745794  59.9171622  58.7416968  26.6075794
  59.6161622  58.5186968  25.6705794  59.4471622  60.0016968  27.1725794
  59.8931622  60.1756968  28.1525794  59.7891622  61.1866968  26.2635794
  59.4581622  60.9686968  25.2475794  59.2491622  62.0686968  26.6105794
  61.2691622  61.5196968  26.2635794  61.8661622  61.6096968  27.3605794
  61.8371622  61.6796968  25.1605794  57.9431622  59.8736968  27.3435794
  57.3141622  59.0746968  26.6495794  57.3561622  60.6546968  28.2455794
  57.8981622  61.3116968  28.7875794  55.9281622  60.5136968  28.5205794
  55.4651622  59.9036968  27.7495794  55.7201622  59.7696968  29.8405794
  56.2541622  60.2886968  30.6385794  54.6581622  59.7936968  30.0915794
  56.1551622  58.3376968  29.7895794  55.3111622  57.3656968  29.2875794
  54.3291622  57.6376968  28.9285794  55.7141622  56.0476968  29.2245794
  55.0451622  55.2966968  28.8315794  56.9761622  55.6906968  29.6605794
  57.2981622  54.6606968  29.5985794  57.8301622  56.6526968  30.1545794
  58.8211622  56.3846968  30.4845794  57.4201622  57.9686968  30.2155794
  58.0981622  58.7156968  30.6025794  55.1771622  61.8356968  28.5435794
  55.5691622  62.7866968  29.2195794  54.0801622  61.8646968  27.7965794
  53.8181622  61.0406968  27.2755794  53.2561622  63.0546968  27.6425794
  53.7191622  63.9046968  28.1455794  53.1421622  63.4146968  26.1555794
  54.0471622  63.9386968  25.8455794  53.0851622  62.4796968  25.5955794
  51.9181622  64.2326968  25.7715794  51.0141622  63.7766968  26.1555794
  52.0081622  65.2396968  26.1815794  51.7241622  64.3046968  24.2625794
  52.6581622  63.9216968  23.5225794  50.6371622  64.7326968  23.8165794
  51.8751622  62.8396968  28.2555794  51.1881622  61.8676968  27.9385794
  51.4711622  63.7376968  29.1455794  52.0691622  64.5096968  29.4015794
  50.1291622  63.6746968  29.7165794  49.9211622  62.6426968  30.0035794
  50.0401622  64.5406968  30.9765794  50.8581622  64.2646968  31.6445794
  50.1621622  65.5936968  30.7185794  48.7421622  64.3446968  31.7325794
  47.9811622  63.4136968  31.3855794  48.4841622  65.1206968  32.6785794
  49.1141622  64.1106968  28.6525794  48.5351622  65.1946968  28.7305794
  48.9061622  63.2326968  27.6715794  49.3901622  62.3476968  27.7165794
  48.1771622  63.5296968  26.4355794  48.7451622  64.2876968  25.8945794
  48.1111622  62.2606968  25.5695794  49.1221622  61.8976968  25.4555794
  47.5371622  61.4946968  26.0945794  47.5161622  62.4706968  24.2085794
  48.0351622  63.3626968  23.2955794  48.8231622  63.9806968  23.4695794
  47.3131622  63.3276968  22.1885794  47.4621622  63.9596968  21.3225794
  46.3491622  62.4366968  22.3465794  45.6271622  62.2086968  21.6735794
  46.4561622  61.8846968  23.6015794  45.8101622  61.1536968  24.0655794
  46.7661622  64.0806968  26.6455794  46.3061622  64.9266968  25.8775794
  46.0801622  63.6076968  27.6805794  46.4961622  62.9296968  28.3025794
  44.6941622  64.0106968  27.9135794  44.2981622  64.5276968  27.0395794
  43.7911622  62.7846968  28.1605794  42.7731622  63.1146968  28.3685794
  43.7611622  61.8836968  26.9335794  43.0511622  61.0716968  27.0995794
  43.4431622  62.4556968  26.0615794  44.7461622  61.4556968  26.7465794
  44.2871622  62.0446968  29.2845794  44.1871622  62.5846968  30.0715794
  44.5391622  64.9676968  29.0965794  43.4191622  65.3476968  29.4425794
  45.6611622  65.3656968  29.6925794  46.5561622  65.0596968  29.3365794
  45.6511622  66.1036968  30.9515794  46.6681622  66.0906968  31.3365794
  45.2141622  67.5576968  30.7455794  45.7521622  67.9676968  29.8905794
  44.1491622  67.6146968  30.5155794  45.5351622  68.4386968  31.9465794
  46.4871622  68.1806968  32.6865794  44.7341622  69.4796968  32.1475794
  44.1741622  69.4646968  32.9865794  45.0561622  70.3846968  31.8435794
  44.7321622  65.3986968  31.9445794  43.7221622  65.9526968  32.3855794
  45.0981622  64.1646968  32.2735794  45.9671622  63.7986968  31.9055794
  44.2501622  63.2506968  33.0335794  43.3331622  63.0986968  32.4615794
  44.9521622  61.8916968  33.1535794  45.0281622  61.4476968  32.1605794
  45.9701622  62.0566968  33.5115794  44.2721622  60.9026968  34.0725794
  43.0571622  60.3256968  33.7255794  42.5851622  60.5926968  32.7905794
  42.4361622  59.4156968  34.5575794  41.4761622  59.0046968  34.2855794
  43.0341622  59.0606968  35.7495794  42.4161622  58.1526968  36.5775794
  41.6481622  57.7456968  36.1605794  44.2451622  59.6106968  36.1135794
  44.7211622  59.3186968  37.0375794  44.8581622  60.5256968  35.2765794
  45.8071622  60.9496968  35.5445794  43.8641622  63.7506968  34.4255794
  44.7201622  64.1106968  35.2335794  42.5631622  63.7636968  34.6955794
  41.8971622  63.4676968  33.9975794  42.0641622  64.0566968  36.0335794
  42.7791622  64.6816968  36.5695794  40.7361622  64.8146968  35.9675794
  40.1111622  64.4376968  35.1565794  40.2401622  64.5736968  36.9055794
  40.8991622  66.3206968  35.8515794  41.9011622  66.6126968  36.1715794
  40.7841622  66.6136968  34.8065794  39.9041622  67.0786968  36.7075794
  38.9481622  66.4476968  37.2095794  40.0861622  68.3026968  36.8845794
  41.9011622  62.7616968  36.8275794  41.0901622  61.9026968  36.4655794
  42.6711622  62.6336968  37.9085794  43.2971622  63.3826968  38.1625794
  42.7171622  61.4006968  38.6975794  43.1771622  60.6486968  38.0715794
  43.5891622  61.5926968  39.9425794  44.5471622  61.9286968  39.5875794
  43.1571622  62.3756968  40.5675794  43.8131622  60.3366968  40.7895794
  42.8531622  60.0206968  41.1925794  44.3751622  59.2026968  39.9435794
  44.6191622  58.3646968  40.5905794  43.6411622  58.8556968  39.2185794
  45.2811622  59.5256968  39.4295794  44.7331622  60.6256968  41.9675794
  44.8691622  59.7246968  42.5635794  45.7051622  60.9596968  41.6085794
  44.2981622  61.4026968  42.5975794  41.3311622  60.9076968  39.1075794
  40.5761622  61.6096968  39.7805794  41.0111622  59.6926968  38.6765794
  41.6571622  59.1906968  38.0855794  39.7291622  59.0556968  38.9605794
  39.1871622  59.6216968  39.7185794  38.8651622  59.0096968  37.6945794
  38.6881622  60.0316968  37.3565794  39.4041622  58.4856968  36.9025794
  37.5201622  58.3436968  37.9195794  36.9491622  58.4946968  39.0195794
  37.0281622  57.6726968  36.9865794  39.9781622  57.6516968  39.4985794
  40.0561622  56.6916968  38.7325794  40.1181622  57.5366968  40.8165794
  40.0251622  58.3526968  41.4025794  40.4771622  56.2656968  41.4455794
  41.2561622  55.7956968  40.8455794  41.0531622  56.4946968  42.8555794
  40.3331622  57.0696968  43.4335794  41.3041622  55.1676968  43.5655794
  41.6951622  55.3346968  44.5665794  40.3781622  54.6086968  43.6985794
  42.0041622  54.5576968  42.9945794  42.3401622  57.3156968  42.7715794
  43.0501622  56.8276968  42.1045794  42.0991622  58.2916968  42.3555794
  42.9911622  57.5536968  44.1065794  43.7681622  58.3066968  43.9915794
  42.2541622  57.9146968  44.8255794  43.4591622  56.6446968  44.4825794
  39.2951622  55.2966968  41.5385794  38.2781622  55.5996968  42.1655794
  39.4441622  54.1316968  40.9095794  40.2961622  53.9436968  40.4025794
  38.4181622  53.0926968  40.9355794  37.4541622  53.5426968  41.1775794
  38.2711622  52.4396968  39.5565794  37.9451622  53.2026968  38.8495794
  39.2421622  52.0556968  39.2405794  37.2581622  51.3016968  39.5445794
  37.5141622  50.5526968  40.2925794  36.2721622  51.7056968  39.7795794
  37.1971622  50.5706968  38.2175794  36.9381622  51.2786968  37.4325794
  38.1691622  50.1286968  37.9995794  36.1391622  49.4726968  38.2685794
  36.3891622  48.7746968  39.0685794  35.1771622  49.9306968  38.5065794
  36.0121622  48.7236968  36.9875794  36.8811622  48.2596968  36.7715794
  35.2751622  48.0366968  37.0755794  35.7791622  49.3726968  36.2465794
  38.7221622  52.0186968  41.9835794  39.8401622  51.5096968  42.0605794
  37.7141622  51.6666968  42.7785794  36.8101622  52.1066968  42.6775794
  37.8751622  50.6566968  43.8205794  38.9331622  50.4756968  43.9845794
  37.3241622  51.1786968  45.1445794  36.2361622  51.2306968  45.0955794
  37.5991622  50.4516968  45.9095794  37.8441622  52.5486968  45.5385794
  38.9251622  52.5666968  45.4475794  37.4381622  53.2976968  44.8565794
  37.4571622  52.9306968  46.9555794  37.2311622  52.0186968  47.7785794
  37.3791622  54.1406968  47.2495794  37.1961622  49.3256968  43.4795794
  35.9871622  49.2706968  43.2615794  37.9901622  48.2616968  43.4195794
  38.9841622  48.3806968  43.5625794  37.4701622  46.8976968  43.3945794
  36.3871622  46.8996968  43.5285794  37.7951622  46.1516968  42.0745794
  37.2281622  45.2206968  42.0515794  37.4161622  46.9946968  40.8615794
  37.4551622  46.3766968  39.9655794  36.4061622  47.3856968  40.9765794
  38.1071622  47.8306968  40.7475794  39.1931622  45.8436968  42.0205794
  39.3921622  45.2896968  42.7815794  38.0961622  46.1736968  44.5825794
  38.7931622  45.1696968  44.4115794  37.8291622  46.7136968  45.7755794
  37.1901622  47.4976968  45.7965794  38.5751622  46.4516968  47.0165794
  38.0371622  46.9256968  47.8365794  38.7091622  44.9546968  47.3085794
  39.3121622  44.4456968  46.5615794  39.2941622  44.8766968  48.2265794
  37.4151622  44.1776968  47.5485794  36.7951622  44.2446968  46.6545794
  37.7361622  42.7156968  47.7735794  36.8101622  42.1406968  47.8135794
  38.3481622  42.3476968  46.9545794  38.2821622  42.5896968  48.7095794
  36.6391622  44.7516968  48.7285794  35.7611622  44.1346968  48.9235794
  37.2661622  44.7746968  49.6195794  36.2971622  45.7606968  48.5035794
  39.9551622  47.1046968  46.9455794  40.3041622  47.9276968  47.7915794
  40.7301622  46.7376968  45.9295794  40.3841622  46.0586968  45.2675794
  42.0211622  47.3626968  45.6665794  42.5231622  47.5486968  46.6155794
  42.9201622  46.4446968  44.8205794  43.8161622  46.9836968  44.5105794
  43.3491622  45.2296968  45.6325794  42.4851622  44.6176968  45.8925794
  44.0411622  44.6336968  45.0465794  43.8521622  45.5536968  46.5445794
  42.1991622  46.0116968  43.6565794  41.4321622  45.5056968  43.9395794
  41.8611622  48.7036968  44.9475794  40.7761622  49.0356968  44.4695794
  42.9501622  49.4666968  44.8715794  43.8181622  49.1426968  45.2735794
  42.9411622  50.7766968  44.2185794  41.9141622  51.0766968  44.0045794
  43.5461622  51.8416968  45.1355794  44.5921622  51.6036968  45.2865794
  43.5281622  52.7796968  44.5785794  42.9091622  52.1236968  46.4955794
  42.9901622  51.2266968  47.1085794  43.6721622  53.2396968  47.1855794
  43.2581622  53.4276968  48.1755794  44.7241622  52.9806968  47.2745794
  43.5931622  54.1546968  46.5975794  41.4391622  52.4836968  46.3555794
  41.0251622  52.7286968  47.3345794  41.3091622  53.3326968  45.6895794
  40.8951622  51.6236968  45.9675794  43.7061622  50.7776968  42.8975794
  44.7651622  50.1566968  42.7695794  43.1601622  51.4886968  41.9205794
  42.2631622  51.9336968  42.0655794  43.8541622  51.7496968  40.6695794
  44.9041622  51.9246968  40.9025794  43.7671622  50.5546968  39.7135794
  44.4701622  50.7416968  38.9005794  44.1131622  49.6526968  40.2195794
  42.3761622  50.2966968  39.1365794  42.0011622  49.3596968  39.5515794
  41.6541622  51.0606968  39.4055794  42.4201622  50.1706968  37.6135794
  42.8811622  51.0696968  37.2005794  43.0211622  49.3036968  37.3345794
  41.0221622  50.0366968  37.0205794  40.5671622  49.1106968  37.3745794
  40.4201622  50.8746968  37.3765794  41.0251622  50.0576968  35.5245794
  41.5481622  50.8566968  35.1905794  41.4531622  49.2156968  35.1645794
  40.0781622  50.1226968  35.1755794  43.2411622  52.9986968  40.0525794
  42.0581622  53.2656968  40.2435794  44.0541622  53.7966968  39.3445794
  45.5221622  53.7166968  39.2495794  45.8451622  52.7686968  38.8185794
  45.9721622  53.8716968  40.2235794  45.8761622  54.8606968  38.3405794
  45.9611622  54.4956968  37.3165794  46.8201622  55.3186968  38.6375794
  44.7591622  55.8346968  38.4255794  44.6821622  56.4486968  37.5275794
  44.9151622  56.4666968  39.2975794  43.5181622  54.9726968  38.6545794
  42.8121622  55.5176968  39.2815794  42.8611622  54.5826968  37.3355794
  43.5191622  53.9896968  36.4875794  41.5831622  54.8986968  37.1625794
  41.0741622  55.4116968  37.8685794  40.8791622  54.4816968  35.9525794
  41.3431622  53.5716968  35.5705794  39.4271622  54.1326968  36.2745794
  39.4231622  53.5016968  37.1615794  38.8831622  55.0526968  36.4935794
  38.7311622  53.3636968  35.1665794  38.7151622  53.9556968  34.2535794
  39.2821622  52.4406968  34.9745794  37.2991622  53.0286968  35.5075794
  36.7151622  53.7356968  36.3595794  36.7611622  52.0616968  34.9255794
  40.9211622  55.5386968  34.8535794  40.9191622  56.7416968  35.1295794
  40.9611622  55.0756968  33.6065794  40.9591622  54.0796968  33.4425794
  40.9041622  55.9516968  32.4475794  40.5831622  55.3616968  31.5885794
  40.1641622  56.7336968  32.6225794  42.2311622  56.6006968  32.1105794
  42.3331622  57.3656968  31.1495794  43.2511622  56.2866968  32.9015794
  43.1071622  55.6476968  33.6685794  44.5571622  56.9126968  32.7595794
  44.3761622  57.9846968  32.8015794  45.4691622  56.5076968  33.9125794
  44.9741622  56.7616968  34.8505794  45.6131622  55.4296968  33.9015794
  46.8001622  57.1926968  33.8965794  46.9381622  58.4626968  33.3535794
  46.1021622  59.0086968  32.9515794  48.1651622  59.0916968  33.3345794
  48.2591622  60.0816968  32.9105794  49.2741622  58.4516968  33.8605794
  50.2401622  58.9346968  33.8285794  49.1511622  57.1806968  34.3995794
  50.0171622  56.6706968  34.7945794  47.9201622  56.5596968  34.4165794
  47.8331622  55.5686968  34.8395794  45.2061622  56.5546968  31.4345794
  45.4061622  55.3826968  31.1185794  45.5401622  57.5846968  30.6665794
  45.3471622  58.5266968  30.9745794  46.1231622  57.3996968  29.3495794
  46.4981622  56.3866968  29.2795794  45.0641622  57.6206968  28.2485794
  44.2921622  58.2946968  28.6255794  45.6731622  58.2846968  27.0175794
  44.9461622  58.2666968  26.2075794  45.9041622  59.3316968  27.2155794
  46.5731622  57.7546968  26.7185794  44.4021622  56.3056968  27.8835794
  43.5611622  56.4936968  27.2165794  45.1021622  55.6476968  27.3735794
  44.0241622  55.8116968  28.7795794  47.3101622  58.3346968  29.1415794
  47.2431622  59.5226968  29.4635794  48.4031622  57.7836968  28.6235794
  48.4071622  56.8016968  28.3825794  49.5601622  58.5926968  28.2725794
  49.3321622  59.6516968  28.3925794  50.7781622  58.2826968  29.1615794
  51.5501622  59.0336968  28.9885794  50.3981622  58.3556968  30.6225794
  51.2841622  58.1976968  31.2395794  49.9961622  59.3446968  30.8465794
  49.6541622  57.6046968  30.8795794  51.3581622  56.9206968  28.8175794
  52.1521622  56.6816968  29.5255794  50.5931622  56.1496968  28.9025794
  51.7951622  56.9016968  27.8205794  49.9611622  58.3816968  26.8205794
  49.3571622  57.5866968  26.0975794  50.9831622  59.1136968  26.4015794
  51.4211622  59.7706968  27.0345794  51.5871622  58.9276968  25.0945794
  51.1951622  58.0236968  24.6245794  51.3131622  60.1266968  24.1775794
  50.6181622  60.7986968  24.6565794  52.2401622  60.6876968  24.0485794
  50.7651622  59.7776968  22.7945794  51.4141622  59.0346968  22.3285794
  49.7651622  59.3546968  22.9035794  50.7101622  61.0206968  21.9025794
  50.1031622  61.7906968  22.3765794  51.7171622  61.4076968  21.7945794
  50.1571622  60.7206968  20.5115794  50.3991622  61.5456968  19.8405794
  50.6521622  59.8226968  20.1355794  48.6801622  60.4996968  20.4865794
  48.4111622  59.9136968  21.2645794  48.1931622  61.3826968  20.5345794
  48.4261622  60.0226968  19.6285794  53.0781622  58.7356968  25.3275794
  53.6731622  59.4196968  26.1655794  53.6811622  57.7926968  24.6115794
  53.1651622  57.2406968  23.9425794  55.1061622  57.5506968  24.7635794
  55.5081622  58.1856968  25.5415794  55.3561622  56.1236968  25.2065794
  56.4241622  55.9656968  25.3385794  54.8591622  55.9396968  26.1585794
  54.9821622  55.4246968  24.4575794  55.8591622  57.8476968  23.4715794
  55.4201622  57.4706968  22.3835794  56.9801622  58.5506968  23.6045794
  57.2691622  58.8446968  24.5295794  57.9161622  58.7426968  22.5025794
  57.4781622  58.3906968  21.5675794  58.2811622  60.2216968  22.3285794
  58.1801622  60.7516968  23.2765794  59.3331622  60.2806968  22.0435794
  57.5041622  60.9536968  21.2385794  57.9931622  61.9116968  21.0565794
  57.5301622  60.3736968  20.3145794  56.0611622  61.2176968  21.6425794
  55.5371622  60.2716968  21.7775794  56.0501622  61.7646968  22.5865794
  55.3321622  62.0386968  20.5855794  55.9041622  62.9476968  20.3935794
  55.2761622  61.4596968  19.6625794  53.9571622  62.4176968  21.0195794
  53.4141622  61.5836968  21.1865794  54.0001622  62.9606968  21.8755794
  53.5131622  62.9776968  20.3055794  59.1661622  57.9116968  22.7665794
  59.7851622  58.0236968  23.8275794  59.5301622  57.0716968  21.8035794
  58.9921622  57.0186968  20.9515794  60.6631622  56.1716968  21.9665794
  60.5771622  55.6866968  22.9395794  60.6291622  55.0736968  20.8995794
  59.6801622  54.5386968  20.9565794  60.7191622  55.5286968  19.9125794
  61.6891622  54.1516968  21.0785794  61.4711622  53.5456968  21.7935794
  61.9911622  56.9226968  21.9065794  62.1981622  57.7776968  21.0415794
  62.8851622  56.5976968  22.8365794  62.6481622  55.9056968  23.5345794
  64.2251622  57.1736968  22.8585794  64.1741622  58.2156968  22.5395794
  64.8061622  57.1356968  24.2715794  64.7581622  56.1136968  24.6535794
  65.8581622  57.4196968  24.2195794  64.1351622  58.0726968  25.2565794
  64.1171622  59.0716968  24.8195794  63.1091622  57.7466968  25.4295794
  64.8901622  58.1036968  26.5795794  64.8681622  57.1156968  26.9915794
  65.9231622  58.4186968  26.4245794  64.2171622  59.0166968  27.5855794
  63.2181622  58.6326968  27.7975794  64.7921622  59.0096968  28.5125794
  64.1011622  60.4096968  27.0855794  63.5301622  60.4346968  26.2505794
  63.6381622  60.9846968  27.7785794  65.0131622  60.7906968  26.8865794
  65.1591622  56.4456968  21.8945794  66.3431622  56.7726968  21.8015794
  64.6151622  55.4546968  21.1925794  63.6371622  55.2386968  21.3275794
  65.3581622  54.6706968  20.2055794  64.7251622  53.8406968  19.9065794
  65.7181622  55.5376968  18.9915794  66.1641622  56.4766968  19.3175794
  66.4711622  55.0506968  18.3745794  64.5361622  55.8646968  18.0875794
  63.7671622  56.3826968  18.6625794  64.8711622  56.5266968  17.2875794
  63.9431622  54.5996968  17.4765794  63.5431622  53.9346968  18.2405794
  63.1061622  54.8976968  16.8435794  64.9591622  53.8666968  16.6065794
  65.3081622  54.5296968  15.8135794  65.8111622  53.5906968  17.2285794
  64.4071622  52.6136968  16.0115794  65.1571622  52.0506968  15.6335794
  63.9251622  52.0846968  16.7265794  63.7601622  52.8476968  15.2705794
  66.6211622  54.0246968  20.7795794  67.7001622  54.1186968  20.1905794
  66.4741622  53.3746968  21.9305794  65.5651622  53.3396968  22.3695794
  67.5381622  52.5526968  22.5045794  68.4751622  52.8046968  22.0225794
  67.7741622  52.8586968  23.9955794  66.8711622  52.5966968  24.5515794
  68.9221622  52.0166968  24.5355794  69.0601622  52.1886968  25.6005794
  68.7151622  50.9536968  24.4175794  69.8461622  52.2596968  24.0105794
  68.0381622  54.3506968  24.2105794  68.9171622  54.6596968  23.6425794
  67.1841622  54.9226968  23.8505794  68.2311622  54.7226968  25.6625794
  68.1721622  55.8066968  25.7665794  67.4531622  54.2616968  26.2695794
  69.2101622  54.3976968  26.0155794  67.1791622  51.0796968  22.3525794
  66.1741622  50.6246968  22.8985794  67.9991622  50.3286968  21.6025794
  69.2261622  50.7856968  20.9295794  70.0671622  50.7526968  21.6235794
  69.1241622  51.7676968  20.4705794  69.4011622  49.7756968  19.8385794
  70.4471622  49.6816968  19.5465794  68.7961622  50.0666968  18.9775794
  68.8711622  48.4996968  20.4065794  69.6541622  48.0266968  21.0025794
  68.5401622  47.8186968  19.6215794  67.7051622  48.9226968  21.3095794
  66.7661622  48.8576968  20.7585794  67.6531622  48.0476968  22.5565794
  68.1771622  48.4206968  23.6085794  67.0031622  46.8956968  22.4235794
  66.5891622  46.6606968  21.5335794  66.9751622  45.8806968  23.4675794
  67.4471622  46.2566968  24.3745794  65.5341622  45.4746968  23.7965794
  65.0151622  45.2956968  22.8525794  65.5511622  44.5206968  24.3275794
  64.7101622  46.4586968  24.6265794  64.7871622  47.4506968  24.1815794
  63.2401622  46.0736968  24.6385794  62.6951622  46.7366968  25.3015794
  62.8251622  46.1516968  23.6335794  63.1281622  45.0526968  25.0005794
  65.2601622  46.5136968  26.0405794  64.6111622  47.1296968  26.6635794
  65.3111622  45.5136968  26.4735794  66.2521622  46.9616968  26.0415794
  67.7821622  44.6696968  23.0155794  67.9621622  44.4476968  21.8175794
  68.2701622  43.8886968  23.9725794  68.0871622  44.1036968  24.9415794
  69.0571622  42.7126968  23.6515794  69.6281622  42.8666968  22.7355794
  69.7741622  42.5546968  24.4565794  68.2121622  41.4646968  23.5035794
  67.2351622  41.4456968  22.7545794  68.6001622  40.4136968  24.2165794
  69.4001622  40.4856968  24.8265794  67.8461622  39.1756968  24.2225794
  67.0941622  39.1486968  23.4335794  68.5371622  38.3506968  24.0495794
  67.1641622  38.9696968  25.5615794  66.9681622  39.9186968  26.3215794
  66.7901622  37.7256968  25.8445794  66.9611622  36.9816968  25.1835794
  66.1651622  37.3706968  27.1155794  66.3031622  38.1936968  27.8095794
  64.6331622  37.1686968  26.9705794  64.4671622  36.2676968  26.3775794
  63.9911622  36.9636968  28.3365794  62.9491622  36.6996968  28.2085794
  64.4851622  36.1886968  28.9085794  64.0451622  37.8876968  28.9125794
  63.9841622  38.3476968  26.2335794  64.1291622  39.2676968  26.8005794
  64.4551622  38.4716968  25.2595794  62.5011622  38.1586968  25.9405794
  62.2561622  38.6396968  24.9925794  62.2491622  37.0986968  25.8715794
  61.9031622  38.6296968  26.7175794  66.8001622  36.0876968  27.6575794
  67.0021622  35.1296968  26.9055794  67.1371622  36.0706968  28.9595794
  67.2141622  37.2366968  29.8605794  66.2291622  37.4496968  30.2785794
  67.6331622  38.1146968  29.3695794  68.1501622  36.7736968  30.9405794
  67.9381622  37.2676968  31.8895794  69.1791622  36.9726968  30.6365794
  67.9381622  35.2926968  31.0305794  67.0571622  35.1036968  31.6155794
  68.8011622  34.7816968  31.4575794  67.6731622  34.8526968  29.5855794
  68.6141622  34.5846968  29.1035794  66.6981622  33.6626968  29.5405794
  67.1211622  32.5506968  29.2115794  65.4251622  33.8956968  29.8605794
  65.1251622  34.8326968  30.0845794  64.4011622  32.8456968  29.8095794
  64.8631622  31.8836968  29.5915794  63.6861622  32.7146968  31.1605794
  63.1441622  31.7686968  31.1755794  64.4161622  32.7076968  31.9705794
  62.7521622  33.7646968  31.3575794  62.2421622  33.8616968  30.5465794
  63.3741622  33.1116968  28.7045794  62.5491622  32.2516968  28.3835794
  63.3391622  34.1996968  28.1335794  48.1781622  42.0256968  54.2465794
  51.9881622  45.5386968  45.7145794  52.7861622  37.8086968  45.1215794
  48.9771622  36.9936968  52.5765794  49.6911622  42.1126968  50.7735794
  46.6811622  41.7616968  54.1375794  52.3381622  46.8266968  45.6425794
  52.6201622  36.5726968  45.5665794  50.1801622  36.4836968  53.3705794
  50.7431622  43.1536968  48.3545794  46.0181622  41.8346968  55.4895794
  49.7671622  36.0606968  54.7565794  50.2021622  39.3356968  49.8515794
  49.3891622  40.0516968  52.0855794  49.6541622  44.4826968  50.0985794
  51.9361622  42.5466968  46.3055794  50.8941622  38.0586968  47.8555794
  48.3491622  44.8946968  52.9605794  50.4231622  46.9266968  48.2725794
  53.3501622  40.6446968  44.2565794  49.9811622  35.5326968  49.6765794
  49.2901622  41.4116968  51.8985794  50.3231622  44.3526968  48.9015794
  51.8721622  41.1796968  46.4065794  50.3921622  38.1486968  49.1445794
  44.7851622  41.5946968  55.5685794  50.1741622  34.9506968  55.1955794
  48.7451622  42.3616968  52.8505794  50.7181622  45.4316968  48.0115794
  52.5041622  40.2646968  45.4915794  49.9781622  37.0436968  49.9955794
  46.7161622  42.1346968  56.4915794  49.0211622  36.8306968  55.4155794
  48.8191622  43.5806968  52.3045794  51.3411622  44.8796968  46.9565794
  52.2431622  39.0266968  45.8925794  49.5101622  37.6886968  51.3075794
  49.4141622  43.4536968  50.9865794  51.3751622  43.4506968  47.1675794
  51.4151622  39.0966968  47.0965794  49.6881622  39.1066968  51.1275794
  51.2141622  40.4396968  47.3735794  48.3431622  42.7596968  54.8585794
  48.6281622  41.2466968  54.6095794  52.1501622  44.9806968  44.9375794
  53.2621622  37.9506968  44.2885794  48.3891622  36.2586968  52.3405794
  48.4561622  37.6136968  53.1105794  46.5311622  40.8866968  53.7475794
  46.2781622  42.4106968  53.5405794  52.7401622  47.1756968  44.8315794
  52.1901622  47.4126968  46.4015794  52.9721622  35.8236968  45.0605794
  52.1461622  36.4166968  46.3985794  50.8541622  37.1796968  53.4275794
  50.5851622  35.7346968  52.9065794  49.2391622  39.7376968  52.9475794
  49.3401622  45.3276968  50.3255794  52.4061622  42.8926968  45.5815794
  50.8801622  37.2176968  47.4595794  47.6091622  44.7106968  53.5595794
  48.0611622  45.5146968  52.2725794  49.0811622  45.2856968  53.4625794
  49.6011622  47.0106968  48.7815794  50.3281622  47.3906968  47.4255794
  51.1551622  47.3186968  48.7745794  54.0171622  39.9586968  44.0975794
  53.7921622  41.4936968  44.4155794  52.7731622  40.7206968  43.4805794
  50.1181622  35.0296968  50.4945794  50.6961622  35.3346968  49.0515794
  49.1301622  35.2836968  49.2825794  50.5601622  41.2246968  49.1415794
  33.0874200  53.2813050  36.0862780  33.7868250  39.8664460  80.7255820
  37.1318060  16.9720810  53.9042520  37.4348790  70.2433190  59.1910140
  37.0266000  49.2977370  28.1460900  35.2101040  20.5370610  36.5200630
  43.7964940  54.6028290  11.4673610  16.3508490  44.4464630  38.9439760
  40.5044220  66.9116880  49.2034430  37.2846900  24.5143440  55.6464710
  61.3664240  24.2713930  27.4997180  85.9246070  79.5621450  83.7978360
  85.8440120  78.6476060  83.5270070  85.5110490  80.0588520  83.0918070
  84.0564110  81.3400470  85.6787630  83.2806210  80.8600910  85.9686200
  84.7077040  80.6606120  85.5043790  78.0729940  81.6520280  86.5563390
  77.2414820  81.3968990  86.9559900  78.6810920  81.7231050  87.2921310
  76.4821890  76.6122170  80.3405780  75.5938590  76.9538140  80.2385660
  76.7663080  76.4122490  79.4486610  74.4454900  79.2127820  86.2245480
  75.0171010  78.4450020  86.2249120  74.4456440  79.5116580  85.3152090
  83.4973100  84.0157660  85.6857790  83.4281380  83.0747600  85.5246920
  84.2592960  84.1059070  86.2580360  75.6879770  74.6212180  88.0114410
  75.5082610  73.7237930  88.2917170  75.2859850  75.1684050  88.6861360
  84.5278270  76.8228040  85.9126720  84.9043090  75.9499920  85.8000390
  84.4297780  77.1586740  85.0217160  78.6583280  75.1953670  81.3744160
  78.7650030  76.0957400  81.6812920  77.7475640  75.1471640  81.0838810
  88.3102390  74.3178480  82.8455060  89.1312010  73.8275050  82.8880540
  88.3436470  74.9076140  83.5986900  76.3066440  77.1172680  86.6196750
  76.9876550  77.3811050  87.2384150  75.9914490  76.2773550  86.9534760
  80.4991010  78.1640040  85.7069340  81.0069230  78.6621010  86.3474360
  81.0304250  77.3875240  85.5308700  78.7827110  72.8038600  89.9732760
  78.7845550  73.3210990  89.1678660  77.9531420  72.3268780  89.9502690
  85.1698200  82.9157910  81.4722660  84.5515470  83.3807360  80.9085380
  85.6821450  83.6085390  81.8892170  80.0329960  82.4433780  88.1506260
  79.6999340  83.0702700  88.7927330  80.2096640  82.9695660  87.3707930
  88.5463870  76.2578860  85.6182600  87.8419440  76.5463750  86.1985710
  88.9076030  77.0678970  85.2582160  78.4642440  74.5148560  87.9803210
  78.8059250  75.3590610  87.6857080  77.5258250  74.6632300  88.0968550
  82.1470330  72.0030830  84.3047800  82.4545310  71.4477720  83.5883300
  81.2171030  72.1375290  84.1220790  87.0970830  82.6227960  87.9237870
  87.5139620  82.4088070  87.0891330  87.8210650  82.8800750  88.4946490
  84.5351090  80.0679660  81.0407920  83.6080370  80.0017040  81.2696390
  84.6875910  81.0059790  80.9263160  84.5220170  76.3396660  78.0375080
  83.5823840  76.5010620  78.1227540  84.8403430  77.0582340  77.4911070
  88.5648380  81.6299960  81.5443170  87.9460800  81.2919510  80.8969470
  88.5472830  80.9859720  82.2522360  88.0074940  77.8084500  88.9608980
  87.5946120  78.6338210  89.2148970  87.2750890  77.2229540  88.7685340
  80.1407730  80.5944400  83.8227650  79.7364730  79.8821650  83.3273550
  80.2270850  80.2497640  84.7115690  78.8536350  77.3687610  87.6026690
  79.4050940  77.4782950  86.8279940  79.3679860  77.7425210  88.3181920
  86.7413080  80.8686770  78.5515920  87.1806360  80.0309200  78.4053740
  87.4541500  81.5016170  78.6380060  78.5279080  80.8906970  91.2132030
  78.3886850  81.7629770  91.5819430  77.6460440  80.5479780  91.0679970
  76.8412360  79.4889380  81.3234300  76.7209960  80.2151470  80.7115570
  76.5313250  78.7192290  80.8462210  74.4797730  82.6604520  87.1302940
  74.5578150  82.7953290  86.1858660  75.0939410  81.9520410  87.3231060
  74.5357250  83.7018690  89.6697400  74.6988290  83.2324050  88.8516770
  75.0009700  83.1942250  90.3346240  79.3076020  72.8324450  84.7057970
  78.8644170  73.6133990  84.3742490  79.8661010  73.1554340  85.4128910
  83.5945830  75.6992970  90.3093290  83.1325200  75.9075990  91.1213230
  83.1923940  74.8852320  90.0063960  88.5950340  76.9201920  91.4389950
  87.7443930  76.6207670  91.7599020  88.4352130  77.1643930  90.5273770
  85.6900050  78.4203670  93.5388740  86.0153460  77.5867420  93.1990970
  86.4780380  78.9432190  93.6867070  82.4234840  72.4535150  79.5863800
  81.7989020  72.4495020  80.3117110  82.3364960  71.5866110  79.1899770
  81.3451920  73.3771780  86.5647570  81.6424250  74.2834610  86.4839590
  81.8937480  72.8890560  85.9507140  79.0990240  77.9558020  82.4339220
  78.8731160  77.7395190  83.3385840  78.3182770  78.3886480  82.0885190
  86.3288000  77.9621390  81.0329870  85.7296890  78.6857190  80.8493490
  86.8767610  77.8998170  80.2506320  81.5389450  78.8543600  93.0999490
  81.4433050  77.9138330  92.9499890  82.3821430  79.0758670  92.7047560
  84.9352870  76.5984930  83.0633150  85.3282440  76.9157130  82.2501840
  85.2969720  75.7196810  83.1777670  76.6699990  75.2657270  91.2533270
  76.2763380  76.1132480  91.4606050  75.9818390  74.6283640  91.4441910
  73.9717040  73.1885730  85.2863350  73.6830090  73.7588590  85.9988330
  74.7162800  72.7090180  85.6494580  74.1587270  77.1305850  76.4966070
  74.0761940  78.0736610  76.6381060  73.8070330  76.9880760  75.6178420
  85.5208010  79.1890680  87.1583930  84.7889130  79.6977490  87.5074030
  85.1232350  78.3720660  86.8572710  81.9585400  75.8644880  85.5636420
  81.9621460  75.4234830  84.7140960  82.8536520  76.1862210  85.6708240
  77.8087780  75.7471370  84.5230630  77.4687830  76.2246600  85.2797680
  77.0465100  75.2936490  84.1631730  82.0205550  76.8656960  78.5543180
  82.1418370  76.8243440  79.5029000  81.6354060  77.7281110  78.3989910
  85.9833920  74.6424360  86.5706870  86.0006660  75.0933010  87.4148720
  85.7349500  73.7430000  86.7840310  81.0327050  79.1758100  77.9526480
  80.4643950  78.7276350  77.3262390  81.7416050  79.5350880  77.4191630
  89.4104670  72.0556540  92.4093250  89.7350440  71.3246200  92.9351230
  89.4461180  71.7370180  91.5074240  76.1096230  83.0770120  91.8293210
  75.7251020  82.4363790  92.4276170  76.4208420  83.7806240  92.3987940
  82.2593370  79.9246660  87.3101830  82.6263500  79.4505230  88.0563170
  82.0698430  80.7988230  87.6510170  75.1233860  74.6690350  83.4395300
  74.8380780  74.3046020  84.2773920  75.0612720  73.9370810  82.8258440
  80.0492740  78.9655300  89.6286040  79.7449810  79.8447280  89.8536400
  81.0039200  79.0255090  89.6643480  78.5774530  83.1716290  80.2252890
  77.8036790  82.6313910  80.0651610  79.3069160  82.6522900  79.8870650
  84.7972450  73.5619610  80.1608670  83.9837060  73.0632780  80.0853980
  84.6034400  74.4017860  79.7445020  84.7181310  82.2390710  91.9048280
  84.6518620  81.3186380  91.6505870  84.0886450  82.3366150  92.6192920
  87.5120840  77.9339260  78.4570830  88.4000460  78.2456490  78.2822170
  87.4825930  77.0611510  78.0651410  78.6211930  82.8396670  83.8631700
  79.1390600  82.0364930  83.8088590  78.1695950  82.7775810  84.7048530
  76.1056470  79.8058040  90.7757400  75.7471410  80.4711890  91.3630740
  75.8111030  78.9741590  91.1470020  79.3069590  80.2642280  93.6596950
  79.0069730  80.4099460  92.7624770  80.0780830  79.7047570  93.5670340
  86.3908840  83.4278790  84.5004510  86.7432660  82.8306920  83.8405880
  85.5071170  83.1023020  84.6712760  74.6164520  79.8049300  77.3992000
  75.4859370  80.0874100  77.6827920  74.1254840  80.6185170  77.2840810
  81.7799330  81.1922510  81.5200280  82.2362110  82.0027760  81.7460470
  81.4287540  80.8745650  82.3518770  77.6811110  71.5360160  81.9922800
  77.5525740  71.5278060  82.9407720  76.8573130  71.8743250  81.6413810
  74.6805040  73.2951280  91.4529500  73.9663560  73.4948200  92.0582110
  75.1000080  72.5190850  91.8244300  88.7835990  82.9081760  78.8523330
  88.4957690  83.3694450  79.6401210  89.5788160  82.4479530  79.1207550
  76.6011030  81.6222770  79.5274060  75.9938980  82.3621670  79.5369360
  77.0760380  81.7122130  78.7012260  86.1743820  75.7873590  89.2030950
  86.5424640  74.9668800  89.5310520  85.3142020  75.8475480  89.6186600
  89.5405850  74.7430530  80.0118510  88.9119010  74.8476200  79.2976740
  89.0457770  74.9627310  80.8012390  81.5089880  77.0216480  81.4276390
  80.8006030  77.4902820  81.8690000  81.7934360  76.3638490  82.0621580
  83.1345810  78.4413180  89.4268920  83.6331060  78.9159000  90.0920770
  83.2768760  77.5176700  89.6338950  85.5405310  73.7467140  82.8672180
  85.4173090  73.7653270  81.9181690  86.4889870  73.7946080  82.9870580
  79.7124900  75.3301560  78.8027100  80.5615430  75.7671710  78.7367290
  79.3456170  75.6421820  79.6299160  88.6334680  79.9014320  83.7158670
  87.6924820  79.9164550  83.8906360  88.9478750  79.1150280  84.1618970
  78.6116320  81.5833920  77.2762630  79.3779590  81.4715280  77.8388060
  78.6891010  80.8871890  76.6239400  77.3063080  79.0158990  77.9595520
  77.3866670  78.0686500  78.0712920  78.1982830  79.3465870  78.0656180
  74.8333880  80.8373910  93.1951690  75.3372900  80.2581190  93.7667920
  74.0941300  81.1214140  93.7328060  81.7357500  83.5588100  76.7497980
  81.6308140  82.9440450  77.4759360  81.5681720  83.0353990  75.9660990
  81.8871820  82.2444900  92.7287210  81.1217490  82.8129900  92.6441880
  82.0687780  81.9521110  91.8355440  84.9760230  82.6208130  77.3539970
  84.4270330  83.0677430  77.9982710  85.5979490  82.1157380  77.8777640
  80.6435350  81.5799050  79.2505270  81.0651770  81.4138920  80.0936660
  80.7686190  80.7699280  78.7560410  78.8062770  77.5595600  92.0576250
  78.2759230  77.0686550  91.4299590  79.4750840  77.9879800  91.5234180
  83.1562990  80.6036660  76.4982370  83.6768650  79.8885680  76.1323520
  83.8031390  81.2422530  76.7982880  87.7040830  82.0265060  91.8217440
  88.1181850  82.1810140  92.6707860  86.7691830  82.1520280  91.9843220
  88.1763000  79.3661220  93.8256590  88.7583770  78.6113540  93.7377070
  88.3524770  79.8968660  93.0488070  79.2935070  74.5257970  92.1373540
  79.1991940  73.9078720  91.4124410  78.7132460  75.2524260  91.9103450
  82.0596510  73.0831210  89.1700930  81.6113810  73.1055470  88.3246480
  81.4261710  72.6850230  89.7671230  82.4656060  81.9785540  89.7913370
  82.8844170  82.8218270  89.6189610  81.5464690  82.1157580  89.5620150
  84.8019960  79.7101720  91.1751210  84.9216170  79.1142860  91.9146050
  85.6613960  79.7471410  90.7552510  87.1407860  80.2638910  89.7513720
  86.6143080  80.7881530  89.1478860  87.4839200  80.8966300  90.3823450
  79.5394250  77.6532280  76.1963430  79.3383310  76.7899640  76.5576770
  79.3686300  77.5665640  75.2585030  81.5688730  76.2523070  92.4327030
  82.1588420  75.9438920  93.1204850  80.7508970  75.7802820  92.5886930
  86.3882160  75.8688880  92.6660050  85.6997680  75.2070420  92.6010040
  87.1088180  75.4227150  93.1108510  87.0182560  72.4640510  78.7250310
  87.2984850  71.6208410  79.0809730  86.2448290  72.6963620  79.2389060
  78.3377050  74.7532900  76.1841310  78.6402950  74.7600330  75.2760460
  79.0771640  74.4030760  76.6808970  81.5561980  73.6967520  77.1697510
  81.2083980  73.0191510  76.5899960  81.7574750  73.2357030  77.9840900
  74.8967620  80.2255170  83.5661880  74.2416460  79.9566810  82.9221580
  75.7345570  80.1159650  83.1163860  87.8458060  75.0196460  77.7880370
  88.2642940  74.8327440  76.9477030  87.5394120  74.1675510  78.0983300
  75.9343550  80.6107740  88.1065220  76.3016590  80.5235140  88.9861240
  75.3654370  79.8474290  88.0072080  75.4859550  77.5216830  92.0123640
  74.5915600  77.4883590  92.3517350  76.0257100  77.7203620  92.7774890
  74.1105700  77.4354100  79.5087210  73.2069780  77.6984300  79.3338870
  74.5946320  77.7065270  78.7287170  76.6532910  76.4919640  77.4181590
  77.3624610  76.0702860  76.9328870  75.9372850  76.5594870  76.7864940
  76.3007070  72.5458970  76.4584240  77.0235200  73.0867910  76.7765460
  76.5731590  72.2722390  75.5825780  75.9899260  71.7965160  86.3606860
  76.6375450  71.2462540  85.9202020  76.4101100  72.0508310  87.1822670
  75.7431260  71.9520830  89.1032180  75.3946080  72.4084650  89.8690360
  75.4118960  71.0577960  89.1854610  83.2556080  73.1432710  92.6251600
  83.1944970  73.7354540  93.3747010  84.1956460  73.0358670  92.4801860
  85.8930640  72.8002770  92.2643890  86.5071050  73.1182060  91.6024970
  86.4380200  72.3151360  92.8839750  76.4151900  71.4797030  92.3782950
  76.9634890  71.2985080  91.6149060  76.4807210  70.6891140  92.9139260
  86.6338680  71.3634910  88.5913180  85.7598520  71.6970020  88.3886110
  86.5249430  70.8908090  89.4165050  87.5410660  73.5705780  89.9754900
  87.2124020  72.7557540  89.5956630  88.4892960  73.5275590  89.8520590
  84.3813500  72.2804750  87.5306090  83.5985290  72.7550250  87.8102850
  84.0876430  71.3759580  87.4219270  88.9334570  72.9827850  85.5755180
  89.3742660  72.9272950  84.7276780  88.6642160  73.8985860  85.6465360
  75.7253910  72.5852230  80.0519810  76.4833270  72.6981110  79.4783840
  75.2631080  73.4221430  80.0063240  82.2667720  74.6991500  83.0422120
  81.4542230  74.3248390  82.7018000  82.7709360  73.9436580  83.3443310
  86.7692700  71.3633950  84.2805190  87.3722070  71.9354160  84.7553710
  86.0285690  71.9273390  84.0579090  78.0979060  73.1116280  78.5921780
  78.6271820  72.3246080  78.4629730  78.7307380  73.7907470  78.8257310
  80.2916900  72.8491420  81.6467170  79.6619640  72.1478730  81.8137300
  79.7522040  73.6095550  81.4300330  85.9246070  79.5621450  65.0234870
  85.8440120  78.6476060  64.7526580  85.5110490  80.0588520  64.3174580
  84.0564110  81.3400470  66.9044140  83.2806210  80.8600910  67.1942710
  84.7077040  80.6606120  66.7300300  78.0729940  81.6520280  67.7819900
  77.2414820  81.3968990  68.1816410  78.6810920  81.7231050  68.5177820
  76.4821890  76.6122170  61.5662290  75.5938590  76.9538140  61.4642170
  76.7663080  76.4122490  60.6743120  74.4454900  79.2127820  67.4501990
  75.0171010  78.4450020  67.4505630  74.4456440  79.5116580  66.5408600
  83.4973100  84.0157660  66.9114300  83.4281380  83.0747600  66.7503430
  84.2592960  84.1059070  67.4836870  75.6879770  74.6212180  69.2370920
  75.5082610  73.7237930  69.5173680  75.2859850  75.1684050  69.9117870
  84.5278270  76.8228040  67.1383230  84.9043090  75.9499920  67.0256900
  84.4297780  77.1586740  66.2473670  78.6583280  75.1953670  62.6000670
  78.7650030  76.0957400  62.9069430  77.7475640  75.1471640  62.3095320
  88.3102390  74.3178480  64.0711570  89.1312010  73.8275050  64.1137050
  88.3436470  74.9076140  64.8243410  76.3066440  77.1172680  67.8453260
  76.9876550  77.3811050  68.4640660  75.9914490  76.2773550  68.1791270
  80.4991010  78.1640040  66.9325850  81.0069230  78.6621010  67.5730870
  81.0304250  77.3875240  66.7565210  78.7827110  72.8038600  71.1989270
  78.7845550  73.3210990  70.3935170  77.9531420  72.3268780  71.1759200
  85.1698200  82.9157910  62.6979170  84.5515470  83.3807360  62.1341890
  85.6821450  83.6085390  63.1148680  80.0329960  82.4433780  69.3762770
  79.6999340  83.0702700  70.0183840  80.2096640  82.9695660  68.5964440
  88.5463870  76.2578860  66.8439110  87.8419440  76.5463750  67.4242220
  88.9076030  77.0678970  66.4838670  78.4642440  74.5148560  69.2059720
  78.8059250  75.3590610  68.9113590  77.5258250  74.6632300  69.3225060
  82.1470330  72.0030830  65.5304310  82.4545310  71.4477720  64.8139810
  81.2171030  72.1375290  65.3477300  87.0970830  82.6227960  69.1494380
  87.5139620  82.4088070  68.3147840  87.8210650  82.8800750  69.7203000
  84.5351090  80.0679660  62.2664430  83.6080370  80.0017040  62.4952900
  84.6875910  81.0059790  62.1519670  84.5220170  76.3396660  59.2631590
  83.5823840  76.5010620  59.3484050  84.8403430  77.0582340  58.7167580
  88.5648380  81.6299960  62.7699680  87.9460800  81.2919510  62.1225980
  88.5472830  80.9859720  63.4778870  88.0074940  77.8084500  70.1865490
  87.5946120  78.6338210  70.4405480  87.2750890  77.2229540  69.9941850
  80.1407730  80.5944400  65.0484160  79.7364730  79.8821650  64.5530060
  80.2270850  80.2497640  65.9372200  78.8536350  77.3687610  68.8283200
  79.4050940  77.4782950  68.0536450  79.3679860  77.7425210  69.5438430
  86.7413080  80.8686770  59.7772430  87.1806360  80.0309200  59.6310250
  87.4541500  81.5016170  59.8636570  78.5279080  80.8906970  72.4388540
  78.3886850  81.7629770  72.8075940  77.6460440  80.5479780  72.2936480
  76.8412360  79.4889380  62.5490810  76.7209960  80.2151470  61.9372080
  76.5313250  78.7192290  62.0718720  74.4797730  82.6604520  68.3559450
  74.5578150  82.7953290  67.4115170  75.0939410  81.9520410  68.5487570
  74.5357250  83.7018690  70.8953910  74.6988290  83.2324050  70.0773280
  75.0009700  83.1942250  71.5602750  79.3076020  72.8324450  65.9314480
  78.8644170  73.6133990  65.5999000  79.8661010  73.1554340  66.6385420
  83.5945830  75.6992970  71.5349800  83.1325200  75.9075990  72.3469740
  83.1923940  74.8852320  71.2320470  88.5950340  76.9201920  72.6646460
  87.7443930  76.6207670  72.9855530  88.4352130  77.1643930  71.7530280
  85.6900050  78.4203670  74.7645250  86.0153460  77.5867420  74.4247480
  86.4780380  78.9432190  74.9123580  82.4234840  72.4535150  60.8120310
  81.7989020  72.4495020  61.5373620  82.3364960  71.5866110  60.4156280
  81.3451920  73.3771780  67.7904080  81.6424250  74.2834610  67.7096100
  81.8937480  72.8890560  67.1763650  79.0990240  77.9558020  63.6595730
  78.8731160  77.7395190  64.5642350  78.3182770  78.3886480  63.3141700
  86.3288000  77.9621390  62.2586380  85.7296890  78.6857190  62.0750000
  86.8767610  77.8998170  61.4762830  81.5389450  78.8543600  74.3256000
  81.4433050  77.9138330  74.1756400  82.3821430  79.0758670  73.9304070
  84.9352870  76.5984930  64.2889660  85.3282440  76.9157130  63.4758350
  85.2969720  75.7196810  64.4034180  76.6699990  75.2657270  72.4789780
  76.2763380  76.1132480  72.6862560  75.9818390  74.6283640  72.6698420
  83.2445040  75.3492240  75.5486520  82.5543360  75.1564440  76.1832610
  83.9877340  75.6326880  76.0810820  73.9717040  73.1885730  66.5119860
  73.6830090  73.7588590  67.2244840  74.7162800  72.7090180  66.8751090
  74.1587270  77.1305850  57.7222580  74.0761940  78.0736610  57.8637570
  73.8070330  76.9880760  56.8434930  85.5208010  79.1890680  68.3840440
  84.7889130  79.6977490  68.7330540  85.1232350  78.3720660  68.0829220
  81.9585400  75.8644880  66.7892930  81.9621460  75.4234830  65.9397470
  82.8536520  76.1862210  66.8964750  77.8087780  75.7471370  65.7487140
  77.4687830  76.2246600  66.5054190  77.0465100  75.2936490  65.3888240
  82.0205550  76.8656960  59.7799690  82.1418370  76.8243440  60.7285510
  81.6354060  77.7281110  59.6246420  85.9833920  74.6424360  67.7963380
  86.0006660  75.0933010  68.6405230  85.7349500  73.7430000  68.0096820
  81.0327050  79.1758100  59.1782990  80.4643950  78.7276350  58.5518900
  81.7416050  79.5350880  58.6448140  89.4104670  72.0556540  73.6349760
  89.7350440  71.3246200  74.1607740  89.4461180  71.7370180  72.7330750
  76.1096230  83.0770120  73.0549720  75.7251020  82.4363790  73.6532680
  76.4208420  83.7806240  73.6244450  82.2593370  79.9246660  68.5358340
  82.6263500  79.4505230  69.2819680  82.0698430  80.7988230  68.8766680
  75.1233860  74.6690350  64.6651810  74.8380780  74.3046020  65.5030430
  75.0612720  73.9370810  64.0514950  80.0492740  78.9655300  70.8542550
  79.7449810  79.8447280  71.0792910  81.0039200  79.0255090  70.8899990
  78.5774530  83.1716290  61.4509400  77.8036790  82.6313910  61.2908120
  79.3069160  82.6522900  61.1127160  84.7972450  73.5619610  61.3865180
  83.9837060  73.0632780  61.3110490  84.6034400  74.4017860  60.9701530
  84.7181310  82.2390710  73.1304790  84.6518620  81.3186380  72.8762380
  84.0886450  82.3366150  73.8449430  87.5120840  77.9339260  59.6827340
  88.4000460  78.2456490  59.5078680  87.4825930  77.0611510  59.2907920
  78.6211930  82.8396670  65.0888210  79.1390600  82.0364930  65.0345100
  78.1695950  82.7775810  65.9305040  76.1056470  79.8058040  72.0013910
  75.7471410  80.4711890  72.5887250  75.8111030  78.9741590  72.3726530
  79.3069590  80.2642280  74.8853460  79.0069730  80.4099460  73.9881280
  80.0780830  79.7047570  74.7926850  86.3908840  83.4278790  65.7261020
  86.7432660  82.8306920  65.0662390  85.5071170  83.1023020  65.8969270
  74.6164520  79.8049300  58.6248510  75.4859370  80.0874100  58.9084430
  74.1254840  80.6185170  58.5097320  81.7799330  81.1922510  62.7456790
  82.2362110  82.0027760  62.9716980  81.4287540  80.8745650  63.5775280
  77.6811110  71.5360160  63.2179310  77.5525740  71.5278060  64.1664230
  76.8573130  71.8743250  62.8670320  74.6805040  73.2951280  72.6786010
  73.9663560  73.4948200  73.2838620  75.1000080  72.5190850  73.0500810
  88.7835990  82.9081760  60.0779840  88.4957690  83.3694450  60.8657720
  89.5788160  82.4479530  60.3464060  76.6011030  81.6222770  60.7530570
  75.9938980  82.3621670  60.7625870  77.0760380  81.7122130  59.9268770
  86.1743820  75.7873590  70.4287460  86.5424640  74.9668800  70.7567030
  85.3142020  75.8475480  70.8443110  89.5405850  74.7430530  61.2375020
  88.9119010  74.8476200  60.5233250  89.0457770  74.9627310  62.0268900
  81.5089880  77.0216480  62.6532900  80.8006030  77.4902820  63.0946510
  81.7934360  76.3638490  63.2878090  83.1345810  78.4413180  70.6525430
  83.6331060  78.9159000  71.3177280  83.2768760  77.5176700  70.8595460
  85.5405310  73.7467140  64.0928690  85.4173090  73.7653270  63.1438200
  86.4889870  73.7946080  64.2127090  79.7124900  75.3301560  60.0283610
  80.5615430  75.7671710  59.9623800  79.3456170  75.6421820  60.8555670
  88.6334680  79.9014320  64.9415180  87.6924820  79.9164550  65.1162870
  88.9478750  79.1150280  65.3875480  78.6116320  81.5833920  58.5019140
  79.3779590  81.4715280  59.0644570  78.6891010  80.8871890  57.8495910
  77.3063080  79.0158990  59.1852030  77.3866670  78.0686500  59.2969430
  78.1982830  79.3465870  59.2912690  74.8333880  80.8373910  74.4208200
  75.3372900  80.2581190  74.9924430  74.0941300  81.1214140  74.9584570
  81.7357500  83.5588100  57.9754490  81.6308140  82.9440450  58.7015870
  81.5681720  83.0353990  57.1917500  81.8871820  82.2444900  73.9543720
  81.1217490  82.8129900  73.8698390  82.0687780  81.9521110  73.0611950
  84.9760230  82.6208130  58.5796480  84.4270330  83.0677430  59.2239220
  85.5979490  82.1157380  59.1034150  76.8656960  78.9803500  75.3158270
  76.9062300  78.6817370  76.2243500  77.7202460  79.3811110  75.1565790
  80.6435350  81.5799050  60.4761780  81.0651770  81.4138920  61.3193170
  80.7686190  80.7699280  59.9816920  78.8062770  77.5595600  73.2832760
  78.2759230  77.0686550  72.6556100  79.4750840  77.9879800  72.7490690
  83.1562990  80.6036660  57.7238880  83.6768650  79.8885680  57.3580030
  83.8031390  81.2422530  58.0239390  87.7040830  82.0265060  73.0473950
  88.1181850  82.1810140  73.8964370  86.7691830  82.1520280  73.2099730
  88.1763000  79.3661220  75.0513100  88.7583770  78.6113540  74.9633580
  88.3524770  79.8968660  74.2744580  79.2935070  74.5257970  73.3630050
  79.1991940  73.9078720  72.6380920  78.7132460  75.2524260  73.1359960
  82.0596510  73.0831210  70.3957440  81.6113810  73.1055470  69.5502990
  81.4261710  72.6850230  70.9927740  82.4656060  81.9785540  71.0169880
  82.8844170  82.8218270  70.8446120  81.5464690  82.1157580  70.7876660
  84.8019960  79.7101720  72.4007720  84.9216170  79.1142860  73.1402560
  85.6613960  79.7471410  71.9809020  87.1407860  80.2638910  70.9770230
  86.6143080  80.7881530  70.3735370  87.4839200  80.8966300  71.6079960
  79.5394250  77.6532280  57.4219940  79.3383310  76.7899640  57.7833280
  79.3686300  77.5665640  56.4841540  81.5688730  76.2523070  73.6583540
  82.1588420  75.9438920  74.3461360  80.7508970  75.7802820  73.8143440
  86.3882160  75.8688880  73.8916560  85.6997680  75.2070420  73.8266550
  87.1088180  75.4227150  74.3365020  87.0182560  72.4640510  59.9506820
  87.2984850  71.6208410  60.3066240  86.2448290  72.6963620  60.4645570
  78.3377050  74.7532900  57.4097820  78.6402950  74.7600330  56.5016970
  79.0771640  74.4030760  57.9065480  81.5561980  73.6967520  58.3954020
  81.2083980  73.0191510  57.8156470  81.7574750  73.2357030  59.2097410
  74.8967620  80.2255170  64.7918390  74.2416460  79.9566810  64.1478090
  75.7345570  80.1159650  64.3420370  87.8458060  75.0196460  59.0136880
  88.2642940  74.8327440  58.1733540  87.5394120  74.1675510  59.3239810
  75.9343550  80.6107740  69.3321730  76.3016590  80.5235140  70.2117750
  75.3654370  79.8474290  69.2328590  75.4859550  77.5216830  73.2380150
  74.5915600  77.4883590  73.5773860  76.0257100  77.7203620  74.0031400
  74.1105700  77.4354100  60.7343720  73.2069780  77.6984300  60.5595380
  74.5946320  77.7065270  59.9543680  76.6532910  76.4919640  58.6438100
  77.3624610  76.0702860  58.1585380  75.9372850  76.5594870  58.0121450
  76.3007070  72.5458970  57.6840750  77.0235200  73.0867910  58.0021970
  76.5731590  72.2722390  56.8082290  75.9899260  71.7965160  67.5863370
  76.6375450  71.2462540  67.1458530  76.4101100  72.0508310  68.4079180
  75.7431260  71.9520830  70.3288690  75.3946080  72.4084650  71.0946870
  75.4118960  71.0577960  70.4111120  83.2556080  73.1432710  73.8508110
  83.1944970  73.7354540  74.6003520  84.1956460  73.0358670  73.7058370
  85.8930640  72.8002770  73.4900400  86.5071050  73.1182060  72.8281480
  86.4380200  72.3151360  74.1096260  76.4151900  71.4797030  73.6039460
  76.9634890  71.2985080  72.8405570  76.4807210  70.6891140  74.1395770
  86.6338680  71.3634910  69.8169690  85.7598520  71.6970020  69.6142620
  86.5249430  70.8908090  70.6421560  87.5410660  73.5705780  71.2011410
  87.2124020  72.7557540  70.8213140  88.4892960  73.5275590  71.0777100
  84.3813500  72.2804750  68.7562600  83.5985290  72.7550250  69.0359360
  84.0876430  71.3759580  68.6475780  88.9334570  72.9827850  66.8011690
  89.3742660  72.9272950  65.9533290  88.6642160  73.8985860  66.8721870
  75.7253910  72.5852230  61.2776320  76.4833270  72.6981110  60.7040350
  75.2631080  73.4221430  61.2319750  82.2667720  74.6991500  64.2678630
  81.4542230  74.3248390  63.9274510  82.7709360  73.9436580  64.5699820
  86.7692700  71.3633950  65.5061700  87.3722070  71.9354160  65.9810220
  86.0285690  71.9273390  65.2835600  78.0979060  73.1116280  59.8178290
  78.6271820  72.3246080  59.6886240  78.7307380  73.7907470  60.0513820
  80.2916900  72.8491420  62.8723680  79.6619640  72.1478730  63.0393810
  79.7522040  73.6095550  62.6556840  80.4172460  72.1275400  75.3076170
  80.1356730  72.6309000  74.5436990  80.7992160  71.3297150  74.9418300
  87.0187920  71.5428980  75.8856640  86.9053370  71.8623590  76.7808160
  87.8357660  71.9441490  75.5893920  85.9246070  79.5621450  46.2491380
  85.8440120  78.6476060  45.9783090  85.5110490  80.0588520  45.5431090
  84.0564110  81.3400470  48.1300650  83.2806210  80.8600910  48.4199220
  84.7077040  80.6606120  47.9556810  78.0729940  81.6520280  49.0076410
  77.2414820  81.3968990  49.4072920  78.6810920  81.7231050  49.7434330
  76.4821890  76.6122170  42.7918800  75.5938590  76.9538140  42.6898680
  76.7663080  76.4122490  41.8999630  74.4454900  79.2127820  48.6758500
  75.0171010  78.4450020  48.6762140  74.4456440  79.5116580  47.7665110
  83.4973100  84.0157660  48.1370810  83.4281380  83.0747600  47.9759940
  84.2592960  84.1059070  48.7093380  75.6879770  74.6212180  50.4627430
  75.5082610  73.7237930  50.7430190  75.2859850  75.1684050  51.1374380
  84.5278270  76.8228040  48.3639740  84.9043090  75.9499920  48.2513410
  84.4297780  77.1586740  47.4730180  78.6583280  75.1953670  43.8257180
  78.7650030  76.0957400  44.1325940  77.7475640  75.1471640  43.5351830
  88.3102390  74.3178480  45.2968080  89.1312010  73.8275050  45.3393560
  88.3436470  74.9076140  46.0499920  76.3066440  77.1172680  49.0709770
  76.9876550  77.3811050  49.6897170  75.9914490  76.2773550  49.4047780
  80.4991010  78.1640040  48.1582360  81.0069230  78.6621010  48.7987380
  81.0304250  77.3875240  47.9821720  78.7827110  72.8038600  52.4245780
  78.7845550  73.3210990  51.6191680  77.9531420  72.3268780  52.4015710
  85.1698200  82.9157910  43.9235680  84.5515470  83.3807360  43.3598400
  85.6821450  83.6085390  44.3405190  80.0329960  82.4433780  50.6019280
  79.6999340  83.0702700  51.2440350  80.2096640  82.9695660  49.8220950
  88.5463870  76.2578860  48.0695620  87.8419440  76.5463750  48.6498730
  88.9076030  77.0678970  47.7095180  78.4642440  74.5148560  50.4316230
  78.8059250  75.3590610  50.1370100  77.5258250  74.6632300  50.5481570
  82.1470330  72.0030830  46.7560820  82.4545310  71.4477720  46.0396320
  81.2171030  72.1375290  46.5733810  87.0970830  82.6227960  50.3750890
  87.5139620  82.4088070  49.5404350  87.8210650  82.8800750  50.9459510
  84.5351090  80.0679660  43.4920940  83.6080370  80.0017040  43.7209410
  84.6875910  81.0059790  43.3776180  84.5220170  76.3396660  40.4888100
  83.5823840  76.5010620  40.5740560  84.8403430  77.0582340  39.9424090
  88.5648380  81.6299960  43.9956190  87.9460800  81.2919510  43.3482490
  88.5472830  80.9859720  44.7035380  88.0074940  77.8084500  51.4122000
  87.5946120  78.6338210  51.6661990  87.2750890  77.2229540  51.2198360
  80.1407730  80.5944400  46.2740670  79.7364730  79.8821650  45.7786570
  80.2270850  80.2497640  47.1628710  78.8536350  77.3687610  50.0539710
  79.4050940  77.4782950  49.2792960  79.3679860  77.7425210  50.7694940
  86.7413080  80.8686770  41.0028940  87.1806360  80.0309200  40.8566760
  87.4541500  81.5016170  41.0893080  78.5279080  80.8906970  53.6645050
  78.3886850  81.7629770  54.0332450  77.6460440  80.5479780  53.5192990
  76.8412360  79.4889380  43.7747320  76.7209960  80.2151470  43.1628590
  76.5313250  78.7192290  43.2975230  74.4797730  82.6604520  49.5815960
  74.5578150  82.7953290  48.6371680  75.0939410  81.9520410  49.7744080
  74.5357250  83.7018690  52.1210420  74.6988290  83.2324050  51.3029790
  75.0009700  83.1942250  52.7859260  79.3076020  72.8324450  47.1570990
  78.8644170  73.6133990  46.8255510  79.8661010  73.1554340  47.8641930
  83.5945830  75.6992970  52.7606310  83.1325200  75.9075990  53.5726250
  83.1923940  74.8852320  52.4576980  88.5950340  76.9201920  53.8902970
  87.7443930  76.6207670  54.2112040  88.4352130  77.1643930  52.9786790
  85.6900050  78.4203670  55.9901760  86.0153460  77.5867420  55.6503990
  86.4780380  78.9432190  56.1380090  82.4234840  72.4535150  42.0376820
  81.7989020  72.4495020  42.7630130  82.3364960  71.5866110  41.6412790
  81.3451920  73.3771780  49.0160590  81.6424250  74.2834610  48.9352610
  81.8937480  72.8890560  48.4020160  79.0990240  77.9558020  44.8852240
  78.8731160  77.7395190  45.7898860  78.3182770  78.3886480  44.5398210
  86.3288000  77.9621390  43.4842890  85.7296890  78.6857190  43.3006510
  86.8767610  77.8998170  42.7019340  81.5389450  78.8543600  55.5512510
  81.4433050  77.9138330  55.4012910  82.3821430  79.0758670  55.1560580
  84.9352870  76.5984930  45.5146170  85.3282440  76.9157130  44.7014860
  85.2969720  75.7196810  45.6290690  76.6699990  75.2657270  53.7046290
  76.2763380  76.1132480  53.9119070  75.9818390  74.6283640  53.8954930
  83.2445040  75.3492240  56.7743030  82.5543360  75.1564440  57.4089120
  83.9877340  75.6326880  57.3067330  73.9717040  73.1885730  47.7376370
  73.6830090  73.7588590  48.4501350  74.7162800  72.7090180  48.1007600
  74.1587270  77.1305850  38.9479090  74.0761940  78.0736610  39.0894080
  73.8070330  76.9880760  38.0691440  85.5208010  79.1890680  49.6096950
  84.7889130  79.6977490  49.9587050  85.1232350  78.3720660  49.3085730
  81.9585400  75.8644880  48.0149440  81.9621460  75.4234830  47.1653980
  82.8536520  76.1862210  48.1221260  77.8087780  75.7471370  46.9743650
  77.4687830  76.2246600  47.7310700  77.0465100  75.2936490  46.6144750
  82.0205550  76.8656960  41.0056200  82.1418370  76.8243440  41.9542020
  81.6354060  77.7281110  40.8502930  85.9833920  74.6424360  49.0219890
  86.0006660  75.0933010  49.8661740  85.7349500  73.7430000  49.2353330
  81.0327050  79.1758100  40.4039500  80.4643950  78.7276350  39.7775410
  81.7416050  79.5350880  39.8704650  89.4104670  72.0556540  54.8606270
  89.7350440  71.3246200  55.3864250  89.4461180  71.7370180  53.9587260
  76.1096230  83.0770120  54.2806230  75.7251020  82.4363790  54.8789190
  76.4208420  83.7806240  54.8500960  82.2593370  79.9246660  49.7614850
  82.6263500  79.4505230  50.5076190  82.0698430  80.7988230  50.1023190
  75.1233860  74.6690350  45.8908320  74.8380780  74.3046020  46.7286940
  75.0612720  73.9370810  45.2771460  80.0492740  78.9655300  52.0799060
  79.7449810  79.8447280  52.3049420  81.0039200  79.0255090  52.1156500
  78.5774530  83.1716290  42.6765910  77.8036790  82.6313910  42.5164630
  79.3069160  82.6522900  42.3383670  84.7972450  73.5619610  42.6121690
  83.9837060  73.0632780  42.5367000  84.6034400  74.4017860  42.1958040
  84.7181310  82.2390710  54.3561300  84.6518620  81.3186380  54.1018890
  84.0886450  82.3366150  55.0705940  87.5120840  77.9339260  40.9083850
  88.4000460  78.2456490  40.7335190  87.4825930  77.0611510  40.5164430
  78.6211930  82.8396670  46.3144720  79.1390600  82.0364930  46.2601610
  78.1695950  82.7775810  47.1561550  76.1056470  79.8058040  53.2270420
  75.7471410  80.4711890  53.8143760  75.8111030  78.9741590  53.5983040
  79.3069590  80.2642280  56.1109970  79.0069730  80.4099460  55.2137790
  80.0780830  79.7047570  56.0183360  86.3908840  83.4278790  46.9517530
  86.7432660  82.8306920  46.2918900  85.5071170  83.1023020  47.1225780
  74.6164520  79.8049300  39.8505020  75.4859370  80.0874100  40.1340940
  74.1254840  80.6185170  39.7353830  81.7799330  81.1922510  43.9713300
  82.2362110  82.0027760  44.1973490  81.4287540  80.8745650  44.8031790
  77.6811110  71.5360160  44.4435820  77.5525740  71.5278060  45.3920740
  76.8573130  71.8743250  44.0926830  74.6805040  73.2951280  53.9042520
  73.9663560  73.4948200  54.5095130  75.1000080  72.5190850  54.2757320
  88.7835990  82.9081760  41.3036350  88.4957690  83.3694450  42.0914230
  89.5788160  82.4479530  41.5720570  76.6011030  81.6222770  41.9787080
  75.9938980  82.3621670  41.9882380  77.0760380  81.7122130  41.1525280
  86.1743820  75.7873590  51.6543970  86.5424640  74.9668800  51.9823540
  85.3142020  75.8475480  52.0699620  89.5405850  74.7430530  42.4631530
  88.9119010  74.8476200  41.7489760  89.0457770  74.9627310  43.2525410
  81.5089880  77.0216480  43.8789410  80.8006030  77.4902820  44.3203020
  81.7934360  76.3638490  44.5134600  83.1345810  78.4413180  51.8781940
  83.6331060  78.9159000  52.5433790  83.2768760  77.5176700  52.0851970
  85.5405310  73.7467140  45.3185200  85.4173090  73.7653270  44.3694710
  86.4889870  73.7946080  45.4383600  79.7124900  75.3301560  41.2540120
  80.5615430  75.7671710  41.1880310  79.3456170  75.6421820  42.0812180
  88.6334680  79.9014320  46.1671690  87.6924820  79.9164550  46.3419380
  88.9478750  79.1150280  46.6131990  78.6116320  81.5833920  39.7275650
  79.3779590  81.4715280  40.2901080  78.6891010  80.8871890  39.0752420
  77.3063080  79.0158990  40.4108540  77.3866670  78.0686500  40.5225940
  78.1982830  79.3465870  40.5169200  74.8333880  80.8373910  55.6464710
  75.3372900  80.2581190  56.2180940  74.0941300  81.1214140  56.1841080
  81.7357500  83.5588100  39.2011000  81.6308140  82.9440450  39.9272380
  81.5681720  83.0353990  38.4174010  81.8871820  82.2444900  55.1800230
  81.1217490  82.8129900  55.0954900  82.0687780  81.9521110  54.2868460
  84.9760230  82.6208130  39.8052990  84.4270330  83.0677430  40.4495730
  85.5979490  82.1157380  40.3290660  76.8656960  78.9803500  56.5414780
  76.9062300  78.6817370  57.4500010  77.7202460  79.3811110  56.3822300
  80.6435350  81.5799050  41.7018290  81.0651770  81.4138920  42.5449680
  80.7686190  80.7699280  41.2073430  78.8062770  77.5595600  54.5089270
  78.2759230  77.0686550  53.8812610  79.4750840  77.9879800  53.9747200
  83.1562990  80.6036660  38.9495390  83.6768650  79.8885680  38.5836540
  83.8031390  81.2422530  39.2495900  87.7040830  82.0265060  54.2730460
  88.1181850  82.1810140  55.1220880  86.7691830  82.1520280  54.4356240
  88.1763000  79.3661220  56.2769610  88.7583770  78.6113540  56.1890090
  88.3524770  79.8968660  55.5001090  79.2935070  74.5257970  54.5886560
  79.1991940  73.9078720  53.8637430  78.7132460  75.2524260  54.3616470
  82.0596510  73.0831210  51.6213950  81.6113810  73.1055470  50.7759500
  81.4261710  72.6850230  52.2184250  82.4656060  81.9785540  52.2426390
  82.8844170  82.8218270  52.0702630  81.5464690  82.1157580  52.0133170
  84.8019960  79.7101720  53.6264230  84.9216170  79.1142860  54.3659070
  85.6613960  79.7471410  53.2065530  87.1407860  80.2638910  52.2026740
  86.6143080  80.7881530  51.5991880  87.4839200  80.8966300  52.8336470
  79.5394250  77.6532280  38.6476450  79.3383310  76.7899640  39.0089790
  79.3686300  77.5665640  37.7098050  81.5688730  76.2523070  54.8840050
  82.1588420  75.9438920  55.5717870  80.7508970  75.7802820  55.0399950
  86.3882160  75.8688880  55.1173070  85.6997680  75.2070420  55.0523060
  87.1088180  75.4227150  55.5621530  87.0182560  72.4640510  41.1763330
  87.2984850  71.6208410  41.5322750  86.2448290  72.6963620  41.6902080
  78.3377050  74.7532900  38.6354330  78.6402950  74.7600330  37.7273480
  79.0771640  74.4030760  39.1321990  81.5561980  73.6967520  39.6210530
  81.2083980  73.0191510  39.0412980  81.7574750  73.2357030  40.4353920
  74.8967620  80.2255170  46.0174900  74.2416460  79.9566810  45.3734600
  75.7345570  80.1159650  45.5676880  87.8458060  75.0196460  40.2393390
  88.2642940  74.8327440  39.3990050  87.5394120  74.1675510  40.5496320
  75.9343550  80.6107740  50.5578240  76.3016590  80.5235140  51.4374260
  75.3654370  79.8474290  50.4585100  75.4859550  77.5216830  54.4636660
  74.5915600  77.4883590  54.8030370  76.0257100  77.7203620  55.2287910
  74.1105700  77.4354100  41.9600230  73.2069780  77.6984300  41.7851890
  74.5946320  77.7065270  41.1800190  76.6532910  76.4919640  39.8694610
  77.3624610  76.0702860  39.3841890  75.9372850  76.5594870  39.2377960
  76.3007070  72.5458970  38.9097260  77.0235200  73.0867910  39.2278480
  76.5731590  72.2722390  38.0338800  75.9899260  71.7965160  48.8119880
  76.6375450  71.2462540  48.3715040  76.4101100  72.0508310  49.6335690
  75.7431260  71.9520830  51.5545200  75.3946080  72.4084650  52.3203380
  75.4118960  71.0577960  51.6367630  83.2556080  73.1432710  55.0764620
  83.1944970  73.7354540  55.8260030  84.1956460  73.0358670  54.9314880
  85.8930640  72.8002770  54.7156910  86.5071050  73.1182060  54.0537990
  86.4380200  72.3151360  55.3352770  76.4151900  71.4797030  54.8295970
  76.9634890  71.2985080  54.0662080  76.4807210  70.6891140  55.3652280
  86.6338680  71.3634910  51.0426200  85.7598520  71.6970020  50.8399130
  86.5249430  70.8908090  51.8678070  87.5410660  73.5705780  52.4267920
  87.2124020  72.7557540  52.0469650  88.4892960  73.5275590  52.3033610
  84.3813500  72.2804750  49.9819110  83.5985290  72.7550250  50.2615870
  84.0876430  71.3759580  49.8732290  88.9334570  72.9827850  48.0268200
  89.3742660  72.9272950  47.1789800  88.6642160  73.8985860  48.0978380
  75.7253910  72.5852230  42.5032830  76.4833270  72.6981110  41.9296860
  75.2631080  73.4221430  42.4576260  82.2667720  74.6991500  45.4935140
  81.4542230  74.3248390  45.1531020  82.7709360  73.9436580  45.7956330
  86.7692700  71.3633950  46.7318210  87.3722070  71.9354160  47.2066730
  86.0285690  71.9273390  46.5092110  78.0979060  73.1116280  41.0434800
  78.6271820  72.3246080  40.9142750  78.7307380  73.7907470  41.2770330
  80.2916900  72.8491420  44.0980190  79.6619640  72.1478730  44.2650320
  79.7522040  73.6095550  43.8813350  80.4172460  72.1275400  56.5332680
  80.1356730  72.6309000  55.7693500  80.7992160  71.3297150  56.1674810
  87.0187920  71.5428980  57.1113150  86.9053370  71.8623590  58.0064670
  87.8357660  71.9441490  56.8150430  85.9246070  79.5621450  27.4747890
  85.8440120  78.6476060  27.2039600  85.5110490  80.0588520  26.7687600
  84.0564110  81.3400470  29.3557160  83.2806210  80.8600910  29.6455730
  84.7077040  80.6606120  29.1813320  78.0729940  81.6520280  30.2332920
  77.2414820  81.3968990  30.6329430  78.6810920  81.7231050  30.9690840
  76.4821890  76.6122170  24.0175310  75.5938590  76.9538140  23.9155190
  76.7663080  76.4122490  23.1256140  74.4454900  79.2127820  29.9015010
  75.0171010  78.4450020  29.9018650  74.4456440  79.5116580  28.9921620
  83.4973100  84.0157660  29.3627320  83.4281380  83.0747600  29.2016450
  84.2592960  84.1059070  29.9349890  75.6879770  74.6212180  31.6883940
  75.5082610  73.7237930  31.9686700  75.2859850  75.1684050  32.3630890
  84.5278270  76.8228040  29.5896250  84.9043090  75.9499920  29.4769920
  84.4297780  77.1586740  28.6986690  78.6583280  75.1953670  25.0513690
  78.7650030  76.0957400  25.3582450  77.7475640  75.1471640  24.7608340
  88.3102390  74.3178480  26.5224590  89.1312010  73.8275050  26.5650070
  88.3436470  74.9076140  27.2756430  76.3066440  77.1172680  30.2966280
  76.9876550  77.3811050  30.9153680  75.9914490  76.2773550  30.6304290
  80.4991010  78.1640040  29.3838870  81.0069230  78.6621010  30.0243890
  81.0304250  77.3875240  29.2078230  78.7827110  72.8038600  33.6502290
  78.7845550  73.3210990  32.8448190  77.9531420  72.3268780  33.6272220
  85.1698200  82.9157910  25.1492190  84.5515470  83.3807360  24.5854910
  85.6821450  83.6085390  25.5661700  80.0329960  82.4433780  31.8275790
  79.6999340  83.0702700  32.4696860  80.2096640  82.9695660  31.0477460
  88.5463870  76.2578860  29.2952130  87.8419440  76.5463750  29.8755240
  88.9076030  77.0678970  28.9351690  78.4642440  74.5148560  31.6572740
  78.8059250  75.3590610  31.3626610  77.5258250  74.6632300  31.7738080
  82.1470330  72.0030830  27.9817330  82.4545310  71.4477720  27.2652830
  81.2171030  72.1375290  27.7990320  87.0970830  82.6227960  31.6007400
  87.5139620  82.4088070  30.7660860  87.8210650  82.8800750  32.1716020
  84.5351090  80.0679660  24.7177450  83.6080370  80.0017040  24.9465920
  84.6875910  81.0059790  24.6032690  84.5220170  76.3396660  21.7144610
  83.5823840  76.5010620  21.7997070  84.8403430  77.0582340  21.1680600
  88.5648380  81.6299960  25.2212700  87.9460800  81.2919510  24.5739000
  88.5472830  80.9859720  25.9291890  88.0074940  77.8084500  32.6378510
  87.5946120  78.6338210  32.8918500  87.2750890  77.2229540  32.4454870
  80.1407730  80.5944400  27.4997180  79.7364730  79.8821650  27.0043080
  80.2270850  80.2497640  28.3885220  78.8536350  77.3687610  31.2796220
  79.4050940  77.4782950  30.5049470  79.3679860  77.7425210  31.9951450
  86.7413080  80.8686770  22.2285450  87.1806360  80.0309200  22.0823270
  87.4541500  81.5016170  22.3149590  78.5279080  80.8906970  34.8901560
  78.3886850  81.7629770  35.2588960  77.6460440  80.5479780  34.7449500
  76.8412360  79.4889380  25.0003830  76.7209960  80.2151470  24.3885100
  76.5313250  78.7192290  24.5231740  74.4797730  82.6604520  30.8072470
  74.5578150  82.7953290  29.8628190  75.0939410  81.9520410  31.0000590
  74.5357250  83.7018690  33.3466930  74.6988290  83.2324050  32.5286300
  75.0009700  83.1942250  34.0115770  79.3076020  72.8324450  28.3827500
  78.8644170  73.6133990  28.0512020  79.8661010  73.1554340  29.0898440
  83.5945830  75.6992970  33.9862820  83.1325200  75.9075990  34.7982760
  83.1923940  74.8852320  33.6833490  88.5950340  76.9201920  35.1159480
  87.7443930  76.6207670  35.4368550  88.4352130  77.1643930  34.2043300
  85.6900050  78.4203670  37.2158270  86.0153460  77.5867420  36.8760500
  86.4780380  78.9432190  37.3636600  82.4234840  72.4535150  23.2633330
  81.7989020  72.4495020  23.9886640  82.3364960  71.5866110  22.8669300
  81.3451920  73.3771780  30.2417100  81.6424250  74.2834610  30.1609120
  81.8937480  72.8890560  29.6276670  79.0990240  77.9558020  26.1108750
  78.8731160  77.7395190  27.0155370  78.3182770  78.3886480  25.7654720
  86.3288000  77.9621390  24.7099400  85.7296890  78.6857190  24.5263020
  86.8767610  77.8998170  23.9275850  81.5389450  78.8543600  36.7769020
  81.4433050  77.9138330  36.6269420  82.3821430  79.0758670  36.3817090
  84.9352870  76.5984930  26.7402680  85.3282440  76.9157130  25.9271370
  85.2969720  75.7196810  26.8547200  76.6699990  75.2657270  34.9302800
  76.2763380  76.1132480  35.1375580  75.9818390  74.6283640  35.1211440
  83.2445040  75.3492240  37.9999540  82.5543360  75.1564440  38.6345630
  83.9877340  75.6326880  38.5323840  73.9717040  73.1885730  28.9632880
  73.6830090  73.7588590  29.6757860  74.7162800  72.7090180  29.3264110
  74.1587270  77.1305850  20.1735600  74.0761940  78.0736610  20.3150590
  73.8070330  76.9880760  19.2947950  85.5208010  79.1890680  30.8353460
  84.7889130  79.6977490  31.1843560  85.1232350  78.3720660  30.5342240
  81.9585400  75.8644880  29.2405950  81.9621460  75.4234830  28.3910490
  82.8536520  76.1862210  29.3477770  77.8087780  75.7471370  28.2000160
  77.4687830  76.2246600  28.9567210  77.0465100  75.2936490  27.8401260
  82.0205550  76.8656960  22.2312710  82.1418370  76.8243440  23.1798530
  81.6354060  77.7281110  22.0759440  85.9833920  74.6424360  30.2476400
  86.0006660  75.0933010  31.0918250  85.7349500  73.7430000  30.4609840
  81.0327050  79.1758100  21.6296010  80.4643950  78.7276350  21.0031920
  81.7416050  79.5350880  21.0961160  89.4104670  72.0556540  36.0862780
  89.7350440  71.3246200  36.6120760  89.4461180  71.7370180  35.1843770
  76.1096230  83.0770120  35.5062740  75.7251020  82.4363790  36.1045700
  76.4208420  83.7806240  36.0757470  82.2593370  79.9246660  30.9871360
  82.6263500  79.4505230  31.7332700  82.0698430  80.7988230  31.3279700
  75.1233860  74.6690350  27.1164830  74.8380780  74.3046020  27.9543450
  75.0612720  73.9370810  26.5027970  80.0492740  78.9655300  33.3055570
  79.7449810  79.8447280  33.5305930  81.0039200  79.0255090  33.3413010
  78.5774530  83.1716290  23.9022420  77.8036790  82.6313910  23.7421140
  79.3069160  82.6522900  23.5640180  84.7972450  73.5619610  23.8378200
  83.9837060  73.0632780  23.7623510  84.6034400  74.4017860  23.4214550
  84.7181310  82.2390710  35.5817810  84.6518620  81.3186380  35.3275400
  84.0886450  82.3366150  36.2962450  87.5120840  77.9339260  22.1340360
  88.4000460  78.2456490  21.9591700  87.4825930  77.0611510  21.7420940
  78.6211930  82.8396670  27.5401230  79.1390600  82.0364930  27.4858120
  78.1695950  82.7775810  28.3818060  76.1056470  79.8058040  34.4526930
  75.7471410  80.4711890  35.0400270  75.8111030  78.9741590  34.8239550
  79.3069590  80.2642280  37.3366480  79.0069730  80.4099460  36.4394300
  80.0780830  79.7047570  37.2439870  86.3908840  83.4278790  28.1774040
  86.7432660  82.8306920  27.5175410  85.5071170  83.1023020  28.3482290
  74.6164520  79.8049300  21.0761530  75.4859370  80.0874100  21.3597450
  74.1254840  80.6185170  20.9610340  81.7799330  81.1922510  25.1969810
  82.2362110  82.0027760  25.4230000  81.4287540  80.8745650  26.0288300
  77.6811110  71.5360160  25.6692330  77.5525740  71.5278060  26.6177250
  76.8573130  71.8743250  25.3183340  74.6805040  73.2951280  35.1299030
  73.9663560  73.4948200  35.7351640  75.1000080  72.5190850  35.5013830
  88.7835990  82.9081760  22.5292860  88.4957690  83.3694450  23.3170740
  89.5788160  82.4479530  22.7977080  76.6011030  81.6222770  23.2043590
  75.9938980  82.3621670  23.2138890  77.0760380  81.7122130  22.3781790
  86.1743820  75.7873590  32.8800480  86.5424640  74.9668800  33.2080050
  85.3142020  75.8475480  33.2956130  89.5405850  74.7430530  23.6888040
  88.9119010  74.8476200  22.9746270  89.0457770  74.9627310  24.4781920
  81.5089880  77.0216480  25.1045920  80.8006030  77.4902820  25.5459530
  81.7934360  76.3638490  25.7391110  83.1345810  78.4413180  33.1038450
  83.6331060  78.9159000  33.7690300  83.2768760  77.5176700  33.3108480
  85.5405310  73.7467140  26.5441710  85.4173090  73.7653270  25.5951220
  86.4889870  73.7946080  26.6640110  79.7124900  75.3301560  22.4796630
  80.5615430  75.7671710  22.4136820  79.3456170  75.6421820  23.3068690
  88.6334680  79.9014320  27.3928200  87.6924820  79.9164550  27.5675890
  88.9478750  79.1150280  27.8388500  78.6116320  81.5833920  20.9532160
  79.3779590  81.4715280  21.5157590  78.6891010  80.8871890  20.3008930
  77.3063080  79.0158990  21.6365050  77.3866670  78.0686500  21.7482450
  78.1982830  79.3465870  21.7425710  74.8333880  80.8373910  36.8721220
  75.3372900  80.2581190  37.4437450  74.0941300  81.1214140  37.4097590
  81.7357500  83.5588100  20.4267510  81.6308140  82.9440450  21.1528890
  81.5681720  83.0353990  19.6430520  81.8871820  82.2444900  36.4056740
  81.1217490  82.8129900  36.3211410  82.0687780  81.9521110  35.5124970
  84.9760230  82.6208130  21.0309500  84.4270330  83.0677430  21.6752240
  85.5979490  82.1157380  21.5547170  76.8656960  78.9803500  37.7671290
  76.9062300  78.6817370  38.6756520  77.7202460  79.3811110  37.6078810
  80.6435350  81.5799050  22.9274800  81.0651770  81.4138920  23.7706190
  80.7686190  80.7699280  22.4329940  78.8062770  77.5595600  35.7345780
  78.2759230  77.0686550  35.1069120  79.4750840  77.9879800  35.2003710
  83.1562990  80.6036660  20.1751900  83.6768650  79.8885680  19.8093050
  83.8031390  81.2422530  20.4752410  87.7040830  82.0265060  35.4986970
  88.1181850  82.1810140  36.3477390  86.7691830  82.1520280  35.6612750
  88.1763000  79.3661220  37.5026120  88.7583770  78.6113540  37.4146600
  88.3524770  79.8968660  36.7257600  79.2935070  74.5257970  35.8143070
  79.1991940  73.9078720  35.0893940  78.7132460  75.2524260  35.5872980
  82.0596510  73.0831210  32.8470460  81.6113810  73.1055470  32.0016010
  81.4261710  72.6850230  33.4440760  82.4656060  81.9785540  33.4682900
  82.8844170  82.8218270  33.2959140  81.5464690  82.1157580  33.2389680
  84.8019960  79.7101720  34.8520740  84.9216170  79.1142860  35.5915580
  85.6613960  79.7471410  34.4322040  87.1407860  80.2638910  33.4283250
  86.6143080  80.7881530  32.8248390  87.4839200  80.8966300  34.0592980
  79.5394250  77.6532280  19.8732960  79.3383310  76.7899640  20.2346300
  79.3686300  77.5665640  18.9354560  81.5688730  76.2523070  36.1096560
  82.1588420  75.9438920  36.7974380  80.7508970  75.7802820  36.2656460
  86.3882160  75.8688880  36.3429580  85.6997680  75.2070420  36.2779570
  87.1088180  75.4227150  36.7878040  87.0182560  72.4640510  22.4019840
  87.2984850  71.6208410  22.7579260  86.2448290  72.6963620  22.9158590
  78.3377050  74.7532900  19.8610840  78.6402950  74.7600330  18.9529990
  79.0771640  74.4030760  20.3578500  81.5561980  73.6967520  20.8467040
  81.2083980  73.0191510  20.2669490  81.7574750  73.2357030  21.6610430
  74.8967620  80.2255170  27.2431410  74.2416460  79.9566810  26.5991110
  75.7345570  80.1159650  26.7933390  87.8458060  75.0196460  21.4649900
  88.2642940  74.8327440  20.6246560  87.5394120  74.1675510  21.7752830
  75.9343550  80.6107740  31.7834750  76.3016590  80.5235140  32.6630770
  75.3654370  79.8474290  31.6841610  75.4859550  77.5216830  35.6893170
  74.5915600  77.4883590  36.0286880  76.0257100  77.7203620  36.4544420
  74.1105700  77.4354100  23.1856740  73.2069780  77.6984300  23.0108400
  74.5946320  77.7065270  22.4056700  76.6532910  76.4919640  21.0951120
  77.3624610  76.0702860  20.6098400  75.9372850  76.5594870  20.4634470
  76.3007070  72.5458970  20.1353770  77.0235200  73.0867910  20.4534990
  76.5731590  72.2722390  19.2595310  75.9899260  71.7965160  30.0376390
  76.6375450  71.2462540  29.5971550  76.4101100  72.0508310  30.8592200
  75.7431260  71.9520830  32.7801710  75.3946080  72.4084650  33.5459890
  75.4118960  71.0577960  32.8624140  83.2556080  73.1432710  36.3021130
  83.1944970  73.7354540  37.0516540  84.1956460  73.0358670  36.1571390
  85.8930640  72.8002770  35.9413420  86.5071050  73.1182060  35.2794500
  86.4380200  72.3151360  36.5609280  76.4151900  71.4797030  36.0552480
  76.9634890  71.2985080  35.2918590  76.4807210  70.6891140  36.5908790
  86.6338680  71.3634910  32.2682710  85.7598520  71.6970020  32.0655640
  86.5249430  70.8908090  33.0934580  87.5410660  73.5705780  33.6524430
  87.2124020  72.7557540  33.2726160  88.4892960  73.5275590  33.5290120
  84.3813500  72.2804750  31.2075620  83.5985290  72.7550250  31.4872380
  84.0876430  71.3759580  31.0988800  88.9334570  72.9827850  29.2524710
  89.3742660  72.9272950  28.4046310  88.6642160  73.8985860  29.3234890
  75.7253910  72.5852230  23.7289340  76.4833270  72.6981110  23.1553370
  75.2631080  73.4221430  23.6832770  82.2667720  74.6991500  26.7191650
  81.4542230  74.3248390  26.3787530  82.7709360  73.9436580  27.0212840
  86.7692700  71.3633950  27.9574720  87.3722070  71.9354160  28.4323240
  86.0285690  71.9273390  27.7348620  78.0979060  73.1116280  22.2691310
  78.6271820  72.3246080  22.1399260  78.7307380  73.7907470  22.5026840
  80.2916900  72.8491420  25.3236700  79.6619640  72.1478730  25.4906830
  79.7522040  73.6095550  25.1069860  80.4172460  72.1275400  37.7589190
  80.1356730  72.6309000  36.9950010  80.7992160  71.3297150  37.3931320
  87.0187920  71.5428980  38.3369660  86.9053370  71.8623590  39.2321180
  87.8357660  71.9441490  38.0406940  85.9246070  79.5621450   8.7004400
  85.8440120  78.6476060   8.4296110  85.5110490  80.0588520   7.9944110
  84.0564110  81.3400470  10.5813670  83.2806210  80.8600910  10.8712240
  84.7077040  80.6606120  10.4069830  78.0729940  81.6520280  11.4589430
  77.2414820  81.3968990  11.8585940  78.6810920  81.7231050  12.1947350
  76.4821890  76.6122170   5.2431820  75.5938590  76.9538140   5.1411700
  76.7663080  76.4122490   4.3512650  74.4454900  79.2127820  11.1271520
  75.0171010  78.4450020  11.1275160  74.4456440  79.5116580  10.2178130
  83.4973100  84.0157660  10.5883830  83.4281380  83.0747600  10.4272960
  84.2592960  84.1059070  11.1606400  75.6879770  74.6212180  12.9140450
  75.5082610  73.7237930  13.1943210  75.2859850  75.1684050  13.5887400
  84.5278270  76.8228040  10.8152760  84.9043090  75.9499920  10.7026430
  84.4297780  77.1586740   9.9243200  78.6583280  75.1953670   6.2770200
  78.7650030  76.0957400   6.5838960  77.7475640  75.1471640   5.9864850
  88.3102390  74.3178480   7.7481100  89.1312010  73.8275050   7.7906580
  88.3436470  74.9076140   8.5012940  76.3066440  77.1172680  11.5222790
  76.9876550  77.3811050  12.1410190  75.9914490  76.2773550  11.8560800
  80.4991010  78.1640040  10.6095380  81.0069230  78.6621010  11.2500400
  81.0304250  77.3875240  10.4334740  78.7827110  72.8038600  14.8758800
  78.7845550  73.3210990  14.0704700  77.9531420  72.3268780  14.8528730
  85.1698200  82.9157910   6.3748700  84.5515470  83.3807360   5.8111420
  85.6821450  83.6085390   6.7918210  80.0329960  82.4433780  13.0532300
  79.6999340  83.0702700  13.6953370  80.2096640  82.9695660  12.2733970
  88.5463870  76.2578860  10.5208640  87.8419440  76.5463750  11.1011750
  88.9076030  77.0678970  10.1608200  78.4642440  74.5148560  12.8829250
  78.8059250  75.3590610  12.5883120  77.5258250  74.6632300  12.9994590
  82.1470330  72.0030830   9.2073840  82.4545310  71.4477720   8.4909340
  81.2171030  72.1375290   9.0246830  87.0970830  82.6227960  12.8263910
  87.5139620  82.4088070  11.9917370  87.8210650  82.8800750  13.3972530
  84.5351090  80.0679660   5.9433960  83.6080370  80.0017040   6.1722430
  84.6875910  81.0059790   5.8289200  84.5220170  76.3396660   2.9401120
  83.5823840  76.5010620   3.0253580  84.8403430  77.0582340   2.3937110
  88.5648380  81.6299960   6.4469210  87.9460800  81.2919510   5.7995510
  88.5472830  80.9859720   7.1548400  88.0074940  77.8084500  13.8635020
  87.5946120  78.6338210  14.1175010  87.2750890  77.2229540  13.6711380
  80.1407730  80.5944400   8.7253690  79.7364730  79.8821650   8.2299590
  80.2270850  80.2497640   9.6141730  78.8536350  77.3687610  12.5052730
  79.4050940  77.4782950  11.7305980  79.3679860  77.7425210  13.2207960
  86.7413080  80.8686770   3.4541960  87.1806360  80.0309200   3.3079780
  87.4541500  81.5016170   3.5406100  78.5279080  80.8906970  16.1158070
  78.3886850  81.7629770  16.4845470  77.6460440  80.5479780  15.9706010
  76.8412360  79.4889380   6.2260340  76.7209960  80.2151470   5.6141610
  76.5313250  78.7192290   5.7488250  74.4797730  82.6604520  12.0328980
  74.5578150  82.7953290  11.0884700  75.0939410  81.9520410  12.2257100
  74.5357250  83.7018690  14.5723440  74.6988290  83.2324050  13.7542810
  75.0009700  83.1942250  15.2372280  79.3076020  72.8324450   9.6084010
  78.8644170  73.6133990   9.2768530  79.8661010  73.1554340  10.3154950
  83.5945830  75.6992970  15.2119330  83.1325200  75.9075990  16.0239270
  83.1923940  74.8852320  14.9090000  88.5950340  76.9201920  16.3415990
  87.7443930  76.6207670  16.6625060  88.4352130  77.1643930  15.4299810
  85.6900050  78.4203670  18.4414780  86.0153460  77.5867420  18.1017010
  86.4780380  78.9432190  18.5893110  82.4234840  72.4535150   4.4889840
  81.7989020  72.4495020   5.2143150  82.3364960  71.5866110   4.0925810
  81.3451920  73.3771780  11.4673610  81.6424250  74.2834610  11.3865630
  81.8937480  72.8890560  10.8533180  79.0990240  77.9558020   7.3365260
  78.8731160  77.7395190   8.2411880  78.3182770  78.3886480   6.9911230
  86.3288000  77.9621390   5.9355910  85.7296890  78.6857190   5.7519530
  86.8767610  77.8998170   5.1532360  81.5389450  78.8543600  18.0025530
  81.4433050  77.9138330  17.8525930  82.3821430  79.0758670  17.6073600
  84.9352870  76.5984930   7.9659190  85.3282440  76.9157130   7.1527880
  85.2969720  75.7196810   8.0803710  76.6699990  75.2657270  16.1559310
  76.2763380  76.1132480  16.3632090  75.9818390  74.6283640  16.3467950
  83.2445040  75.3492240  19.2256050  82.5543360  75.1564440  19.8602140
  83.9877340  75.6326880  19.7580350  73.9717040  73.1885730  10.1889390
  73.6830090  73.7588590  10.9014370  74.7162800  72.7090180  10.5520620
  85.5208010  79.1890680  12.0609970  84.7889130  79.6977490  12.4100070
  85.1232350  78.3720660  11.7598750  81.9585400  75.8644880  10.4662460
  81.9621460  75.4234830   9.6167000  82.8536520  76.1862210  10.5734280
  77.8087780  75.7471370   9.4256670  77.4687830  76.2246600  10.1823720
  77.0465100  75.2936490   9.0657770  82.0205550  76.8656960   3.4569220
  82.1418370  76.8243440   4.4055040  81.6354060  77.7281110   3.3015950
  85.9833920  74.6424360  11.4732910  86.0006660  75.0933010  12.3174760
  85.7349500  73.7430000  11.6866350  81.0327050  79.1758100   2.8552520
  80.4643950  78.7276350   2.2288430  81.7416050  79.5350880   2.3217670
  89.4104670  72.0556540  17.3119290  89.7350440  71.3246200  17.8377270
  89.4461180  71.7370180  16.4100280  76.1096230  83.0770120  16.7319250
  75.7251020  82.4363790  17.3302210  76.4208420  83.7806240  17.3013980
  82.2593370  79.9246660  12.2127870  82.6263500  79.4505230  12.9589210
  82.0698430  80.7988230  12.5536210  75.1233860  74.6690350   8.3421340
  74.8380780  74.3046020   9.1799960  75.0612720  73.9370810   7.7284480
  80.0492740  78.9655300  14.5312080  79.7449810  79.8447280  14.7562440
  81.0039200  79.0255090  14.5669520  78.5774530  83.1716290   5.1278930
  77.8036790  82.6313910   4.9677650  79.3069160  82.6522900   4.7896690
  84.7972450  73.5619610   5.0634710  83.9837060  73.0632780   4.9880020
  84.6034400  74.4017860   4.6471060  84.7181310  82.2390710  16.8074320
  84.6518620  81.3186380  16.5531910  84.0886450  82.3366150  17.5218960
  87.5120840  77.9339260   3.3596870  88.4000460  78.2456490   3.1848210
  87.4825930  77.0611510   2.9677450  78.6211930  82.8396670   8.7657740
  79.1390600  82.0364930   8.7114630  78.1695950  82.7775810   9.6074570
  76.1056470  79.8058040  15.6783440  75.7471410  80.4711890  16.2656780
  75.8111030  78.9741590  16.0496060  79.3069590  80.2642280  18.5622990
  79.0069730  80.4099460  17.6650810  80.0780830  79.7047570  18.4696380
  86.3908840  83.4278790   9.4030550  86.7432660  82.8306920   8.7431920
  85.5071170  83.1023020   9.5738800  74.6164520  79.8049300   2.3018040
  75.4859370  80.0874100   2.5853960  74.1254840  80.6185170   2.1866850
  81.7799330  81.1922510   6.4226320  82.2362110  82.0027760   6.6486510
  81.4287540  80.8745650   7.2544810  77.6811110  71.5360160   6.8948840
  77.5525740  71.5278060   7.8433760  76.8573130  71.8743250   6.5439850
  74.6805040  73.2951280  16.3555540  73.9663560  73.4948200  16.9608150
  75.1000080  72.5190850  16.7270340  88.7835990  82.9081760   3.7549370
  88.4957690  83.3694450   4.5427250  89.5788160  82.4479530   4.0233590
  76.6011030  81.6222770   4.4300100  75.9938980  82.3621670   4.4395400
  77.0760380  81.7122130   3.6038300  86.1743820  75.7873590  14.1056990
  86.5424640  74.9668800  14.4336560  85.3142020  75.8475480  14.5212640
  89.5405850  74.7430530   4.9144550  88.9119010  74.8476200   4.2002780
  89.0457770  74.9627310   5.7038430  81.5089880  77.0216480   6.3302430
  80.8006030  77.4902820   6.7716040  81.7934360  76.3638490   6.9647620
  83.1345810  78.4413180  14.3294960  83.6331060  78.9159000  14.9946810
  83.2768760  77.5176700  14.5364990  85.5405310  73.7467140   7.7698220
  85.4173090  73.7653270   6.8207730  86.4889870  73.7946080   7.8896620
  79.7124900  75.3301560   3.7053140  80.5615430  75.7671710   3.6393330
  79.3456170  75.6421820   4.5325200  88.6334680  79.9014320   8.6184710
  87.6924820  79.9164550   8.7932400  88.9478750  79.1150280   9.0645010
  77.3063080  79.0158990   2.8621560  77.3866670  78.0686500   2.9738960
  78.1982830  79.3465870   2.9682220  74.8333880  80.8373910  18.0977730
  75.3372900  80.2581190  18.6693960  74.0941300  81.1214140  18.6354100
  81.8871820  82.2444900  17.6313250  81.1217490  82.8129900  17.5467920
  82.0687780  81.9521110  16.7381480  84.9760230  82.6208130   2.2566010
  84.4270330  83.0677430   2.9008750  85.5979490  82.1157380   2.7803680
  76.8656960  78.9803500  18.9927800  76.9062300  78.6817370  19.9013030
  77.7202460  79.3811110  18.8335320  80.6435350  81.5799050   4.1531310
  81.0651770  81.4138920   4.9962700  80.7686190  80.7699280   3.6586450
  78.8062770  77.5595600  16.9602290  78.2759230  77.0686550  16.3325630
  79.4750840  77.9879800  16.4260220  87.7040830  82.0265060  16.7243480
  88.1181850  82.1810140  17.5733900  86.7691830  82.1520280  16.8869260
  88.1763000  79.3661220  18.7282630  88.7583770  78.6113540  18.6403110
  88.3524770  79.8968660  17.9514110  79.2935070  74.5257970  17.0399580
  79.1991940  73.9078720  16.3150450  78.7132460  75.2524260  16.8129490
  82.0596510  73.0831210  14.0726970  81.6113810  73.1055470  13.2272520
  81.4261710  72.6850230  14.6697270  82.4656060  81.9785540  14.6939410
  82.8844170  82.8218270  14.5215650  81.5464690  82.1157580  14.4646190
  84.8019960  79.7101720  16.0777250  84.9216170  79.1142860  16.8172090
  85.6613960  79.7471410  15.6578550  87.1407860  80.2638910  14.6539760
  86.6143080  80.7881530  14.0504900  87.4839200  80.8966300  15.2849490
  81.5688730  76.2523070  17.3353070  82.1588420  75.9438920  18.0230890
  80.7508970  75.7802820  17.4912970  86.3882160  75.8688880  17.5686090
  85.6997680  75.2070420  17.5036080  87.1088180  75.4227150  18.0134550
  87.0182560  72.4640510   3.6276350  87.2984850  71.6208410   3.9835770
  86.2448290  72.6963620   4.1415100  74.8967620  80.2255170   8.4687920
  74.2416460  79.9566810   7.8247620  75.7345570  80.1159650   8.0189900
  87.8458060  75.0196460   2.6906410  88.2642940  74.8327440   1.8503070
  87.5394120  74.1675510   3.0009340  75.9343550  80.6107740  13.0091260
  76.3016590  80.5235140  13.8887280  75.3654370  79.8474290  12.9098120
  75.4859550  77.5216830  16.9149680  74.5915600  77.4883590  17.2543390
  76.0257100  77.7203620  17.6800930  74.1105700  77.4354100   4.4113250
  73.2069780  77.6984300   4.2364910  74.5946320  77.7065270   3.6313210
  76.6532910  76.4919640   2.3207630  77.3624610  76.0702860   1.8354910
  75.9372850  76.5594870   1.6890980  75.9899260  71.7965160  11.2632900
  76.6375450  71.2462540  10.8228060  76.4101100  72.0508310  12.0848710
  75.7431260  71.9520830  14.0058220  75.3946080  72.4084650  14.7716400
  75.4118960  71.0577960  14.0880650  83.2556080  73.1432710  17.5277640
  83.1944970  73.7354540  18.2773050  84.1956460  73.0358670  17.3827900
  85.8930640  72.8002770  17.1669930  86.5071050  73.1182060  16.5051010
  86.4380200  72.3151360  17.7865790  76.4151900  71.4797030  17.2808990
  76.9634890  71.2985080  16.5175100  76.4807210  70.6891140  17.8165300
  86.6338680  71.3634910  13.4939220  85.7598520  71.6970020  13.2912150
  86.5249430  70.8908090  14.3191090  87.5410660  73.5705780  14.8780940
  87.2124020  72.7557540  14.4982670  88.4892960  73.5275590  14.7546630
  84.3813500  72.2804750  12.4332130  83.5985290  72.7550250  12.7128890
  84.0876430  71.3759580  12.3245310  88.9334570  72.9827850  10.4781220
  89.3742660  72.9272950   9.6302820  88.6642160  73.8985860  10.5491400
  75.7253910  72.5852230   4.9545850  76.4833270  72.6981110   4.3809880
  75.2631080  73.4221430   4.9089280  82.2667720  74.6991500   7.9448160
  81.4542230  74.3248390   7.6044040  82.7709360  73.9436580   8.2469350
  86.7692700  71.3633950   9.1831230  87.3722070  71.9354160   9.6579750
  86.0285690  71.9273390   8.9605130  78.0979060  73.1116280   3.4947820
  78.6271820  72.3246080   3.3655770  78.7307380  73.7907470   3.7283350
  80.2916900  72.8491420   6.5493210  79.6619640  72.1478730   6.7163340
  79.7522040  73.6095550   6.3326370  80.4172460  72.1275400  18.9845700
  80.1356730  72.6309000  18.2206520  80.7992160  71.3297150  18.6187830
  87.0187920  71.5428980  19.5626170  86.9053370  71.8623590  20.4577690
  87.8357660  71.9441490  19.2663450  85.9246070  60.7877960  83.7978360
  85.8440120  59.8732570  83.5270070  85.5110490  61.2845030  83.0918070
  84.0564110  62.5656980  85.6787630  83.2806210  62.0857420  85.9686200
  84.7077040  61.8862630  85.5043790  78.0729940  62.8776790  86.5563390
  77.2414820  62.6225500  86.9559900  78.6810920  62.9487560  87.2921310
  88.0771540  66.9717170  84.4586760  87.6153070  66.2004410  84.7873930
  88.8897090  66.9983240  84.9639210  78.0531200  66.9116880  86.7521410
  78.3559240  66.0214620  86.5731630  78.7974790  67.4687100  86.5243660
  76.4821890  57.8378680  80.3405780  75.5938590  58.1794650  80.2385660
  76.7663080  57.6379000  79.4486610  74.4454900  60.4384330  86.2245480
  75.0171010  59.6706530  86.2249120  74.4456440  60.7373090  85.3152090
  84.3034850  69.2575180  84.0790750  83.6846290  69.7132680  83.5085190
  85.1586630  69.4126640  83.6780450  83.4973100  65.2414170  85.6857790
  83.4281380  64.3004110  85.5246920  84.2592960  65.3315580  86.2580360
  75.6879770  55.8468690  88.0114410  75.5082610  54.9494440  88.2917170
  75.2859850  56.3940560  88.6861360  84.5278270  58.0484550  85.9126720
  84.9043090  57.1756430  85.8000390  84.4297780  58.3843250  85.0217160
  78.6583280  56.4210180  81.3744160  78.7650030  57.3213910  81.6812920
  77.7475640  56.3728150  81.0838810  88.3102390  55.5434990  82.8455060
  89.1312010  55.0531560  82.8880540  88.3436470  56.1332650  83.5986900
  76.3066440  58.3429190  86.6196750  76.9876550  58.6067560  87.2384150
  75.9914490  57.5030060  86.9534760  80.4991010  59.3896550  85.7069340
  81.0069230  59.8877520  86.3474360  81.0304250  58.6131750  85.5308700
  78.7827110  54.0295110  89.9732760  78.7845550  54.5467500  89.1678660
  77.9531420  53.5525290  89.9502690  85.1698200  64.1414420  81.4722660
  84.5515470  64.6063870  80.9085380  85.6821450  64.8341900  81.8892170
  80.0329960  63.6690290  88.1506260  79.6999340  64.2959210  88.7927330
  80.2096640  64.1952170  87.3707930  88.5463870  57.4835370  85.6182600
  87.8419440  57.7720260  86.1985710  88.9076030  58.2935480  85.2582160
  78.4642440  55.7405070  87.9803210  78.8059250  56.5847120  87.6857080
  77.5258250  55.8888810  88.0968550  79.2449060  65.6371090  89.9655440
  79.8623060  66.3122170  89.6839890  78.3842180  66.0459070  89.8742940
  74.5381400  64.8270950  78.8462290  74.1609380  65.3158050  78.1147190
  74.7954470  65.4996230  79.4768820  82.1470330  53.2287340  84.3047800
  82.4545310  52.6734230  83.5883300  81.2171030  53.3631800  84.1220790
  87.6985390  68.9454630  86.5955260  87.7112550  68.5416920  85.7277520
  87.1460610  69.7201920  86.4916690  88.9930810  65.6670850  81.6845430
  88.8827140  64.7245180  81.8094850  88.9899060  66.0286490  82.5708190
  87.0970830  63.8484470  87.9237870  87.5139620  63.6344580  87.0891330
  87.8210650  64.1057260  88.4946490  84.5351090  61.2936170  81.0407920
  83.6080370  61.2273550  81.2696390  84.6875910  62.2316300  80.9263160
  84.5220170  57.5653170  78.0375080  83.5823840  57.7267130  78.1227540
  84.8403430  58.2838850  77.4911070  88.5648380  62.8556470  81.5443170
  87.9460800  62.5176020  80.8969470  88.5472830  62.2116230  82.2522360
  88.0074940  59.0341010  88.9608980  87.5946120  59.8594720  89.2148970
  87.2750890  58.4486050  88.7685340  80.1407730  61.8200910  83.8227650
  79.7364730  61.1078160  83.3273550  80.2270850  61.4754150  84.7115690
  80.6089430  65.5068470  85.9866860  80.3117720  64.9013940  85.3074640
  81.5589250  65.5445780  85.8756220  78.8536350  58.5944120  87.6026690
  79.4050940  58.7039460  86.8279940  79.3679860  58.9681720  88.3181920
  88.6975040  69.0800340  89.6489960  88.2205600  69.8872530  89.4562570
  88.0136830  68.4278670  89.8016170  79.7007860  65.2450160  92.6374660
  78.8036390  65.4690130  92.8848060  79.7260730  65.3685100  91.6886060
  86.7413080  62.0943280  78.5515920  87.1806360  61.2565710  78.4053740
  87.4541500  62.7272680  78.6380060  78.5279080  62.1163480  91.2132030
  78.3886850  62.9886280  91.5819430  77.6460440  61.7736290  91.0679970
  84.8508460  67.0339350  82.5197160  85.2904370  67.7763680  82.1052550
  84.7895350  67.2765920  83.4436120  80.3259430  68.0585180  93.4217180
  80.2974860  68.4628130  92.5545610  80.1624400  67.1295540  93.2588780
  76.8412360  60.7145890  81.3234300  76.7209960  61.4407980  80.7115570
  76.5313250  59.9448800  80.8462210  74.4797730  63.8861030  87.1302940
  74.5578150  64.0209800  86.1858660  75.0939410  63.1776920  87.3231060
  75.7245360  65.5861220  83.5409120  75.3173440  65.7275810  82.6862720
  76.6158370  65.3021380  83.3380330  85.5424240  69.7353130  90.4476170
  86.0568910  69.6461140  91.2498600  84.6993320  70.0812830  90.7404080
  87.5178640  70.0208470  79.8760170  87.3579780  69.7311410  80.7742000
  87.3525350  69.2448600  79.3405400  79.9967020  69.8007000  81.6531790
  79.8209500  68.8842540  81.4399590  79.1422760  70.1594290  81.8929590
  87.2204770  67.5296030  78.4358170  86.5269930  67.5273320  77.7760450
  87.9627630  67.1055350  78.0052340  86.7854700  69.1558740  82.5106660
  87.2411650  68.3748120  82.8245280  87.1247220  69.8665560  83.0547840
  74.5357250  64.9275200  89.6697400  74.6988290  64.4580560  88.8516770
  75.0009700  64.4198760  90.3346240  79.3076020  54.0580960  84.7057970
  78.8644170  54.8390500  84.3742490  79.8661010  54.3810850  85.4128910
  83.5945830  56.9249480  90.3093290  83.1325200  57.1332500  91.1213230
  83.1923940  56.1108830  90.0063960  88.5950340  58.1458430  91.4389950
  87.7443930  57.8464180  91.7599020  88.4352130  58.3900440  90.5273770
  85.6900050  59.6460180  93.5388740  86.0153460  58.8123930  93.1990970
  86.4780380  60.1688700  93.6867070  82.4234840  53.6791660  79.5863800
  81.7989020  53.6751530  80.3117110  82.3364960  52.8122620  79.1899770
  81.3451920  54.6028290  86.5647570  81.6424250  55.5091120  86.4839590
  81.8937480  54.1147070  85.9507140  79.0990240  59.1814530  82.4339220
  78.8731160  58.9651700  83.3385840  78.3182770  59.6142990  82.0885190
  86.3288000  59.1877900  81.0329870  85.7296890  59.9113700  80.8493490
  86.8767610  59.1254680  80.2506320  81.5389450  60.0800110  93.0999490
  81.4433050  59.1394840  92.9499890  82.3821430  60.3015180  92.7047560
  84.9352870  57.8241440  83.0633150  85.3282440  58.1413640  82.2501840
  85.2969720  56.9453320  83.1777670  76.6699990  56.4913780  91.2533270
  76.2763380  57.3388990  91.4606050  75.9818390  55.8540150  91.4441910
  73.9717040  54.4142240  85.2863350  73.6830090  54.9845100  85.9988330
  74.7162800  53.9346690  85.6494580  74.1587270  58.3562360  76.4966070
  74.0761940  59.2993120  76.6381060  73.8070330  58.2137270  75.6178420
  85.5208010  60.4147190  87.1583930  84.7889130  60.9234000  87.5074030
  85.1232350  59.5977170  86.8572710  81.9585400  57.0901390  85.5636420
  81.9621460  56.6491340  84.7140960  82.8536520  57.4118720  85.6708240
  77.8087780  56.9727880  84.5230630  77.4687830  57.4503110  85.2797680
  77.0465100  56.5193000  84.1631730  82.0205550  58.0913470  78.5543180
  82.1418370  58.0499950  79.5029000  81.6354060  58.9537620  78.3989910
  85.9833920  55.8680870  86.5706870  86.0006660  56.3189520  87.4148720
  85.7349500  54.9686510  86.7840310  81.0327050  60.4014610  77.9526480
  80.4643950  59.9532860  77.3262390  81.7416050  60.7607390  77.4191630
  89.4104670  53.2813050  92.4093250  89.7350440  52.5502710  92.9351230
  89.4461180  52.9626690  91.5074240  76.1096230  64.3026630  91.8293210
  75.7251020  63.6620300  92.4276170  76.4208420  65.0062750  92.3987940
  82.2593370  61.1503170  87.3101830  82.6263500  60.6761740  88.0563170
  82.0698430  62.0244740  87.6510170  75.1233860  55.8946860  83.4395300
  74.8380780  55.5302530  84.2773920  75.0612720  55.1627320  82.8258440
  80.0492740  60.1911810  89.6286040  79.7449810  61.0703790  89.8536400
  81.0039200  60.2511600  89.6643480  78.5774530  64.3972800  80.2252890
  77.8036790  63.8570420  80.0651610  79.3069160  63.8779410  79.8870650
  84.7972450  54.7876120  80.1608670  83.9837060  54.2889290  80.0853980
  84.6034400  55.6274370  79.7445020  84.7181310  63.4647220  91.9048280
  84.6518620  62.5442890  91.6505870  84.0886450  63.5622660  92.6192920
  87.5120840  59.1595770  78.4570830  88.4000460  59.4713000  78.2822170
  87.4825930  58.2868020  78.0651410  78.6211930  64.0653180  83.8631700
  79.1390600  63.2621440  83.8088590  78.1695950  64.0032320  84.7048530
  83.5081430  65.3319460  79.1359000  83.8497130  66.0761690  78.6402320
  82.6794140  65.6450580  79.4983830  76.1056470  61.0314550  90.7757400
  75.7471410  61.6968400  91.3630740  75.8111030  60.1998100  91.1470020
  79.3069590  61.4898790  93.6596950  79.0069730  61.6355970  92.7624770
  80.0780830  60.9304080  93.5670340  84.6498040  66.2867790  91.6552080
  84.6642580  65.3548750  91.4370990  83.9423140  66.3727550  92.2941850
  86.3908840  64.6535300  84.5004510  86.7432660  64.0563430  83.8405880
  85.5071170  64.3279530  84.6712760  82.4772120  65.4132990  81.9074920
  83.1643250  65.9602200  82.2882510  81.6904540  65.9573720  81.9424530
  74.6164520  61.0305810  77.3992000  75.4859370  61.3130610  77.6827920
  74.1254840  61.8441680  77.2840810  81.7799330  62.4179020  81.5200280
  82.2362110  63.2284270  81.7460470  81.4287540  62.1002160  82.3518770
  84.0831940  67.9285360  88.7492580  84.7274160  68.1344740  89.4266000
  84.4461380  67.1673760  88.2963430  77.6811110  52.7616670  81.9922800
  77.5525740  52.7534570  82.9407720  76.8573130  53.0999760  81.6413810
  85.3564020  65.9317710  87.4670030  85.9986250  65.2310870  87.5802200
  85.8813370  66.7116150  87.2866920  89.2019740  66.2166330  77.1909170
  88.9757320  65.4996770  77.7833810  88.8115940  65.9678770  76.3530920
  87.1301640  66.7312610  90.6706090  87.4657880  67.3179300  91.3484010
  86.2101980  66.6005320  90.9003880  74.9835770  70.2433190  77.9653630
  75.3433410  70.8422530  77.3110900  74.8428110  70.7893080  78.7388660
  74.6805040  54.5207790  91.4529500  73.9663560  54.7204710  92.0582110
  75.1000080  53.7447360  91.8244300  88.7835990  64.1338270  78.8523330
  88.4957690  64.5950960  79.6401210  89.5788160  63.6736040  79.1207550
  74.9677630  68.5088050  92.4396030  75.0768750  67.5682790  92.2991420
  74.3158190  68.7742800  91.7909760  81.0004390  67.6264390  78.7827300
  80.9914490  68.3594080  78.1671810  80.0802750  67.3795970  78.8754260
  76.6011030  62.8479280  79.5274060  75.9938980  63.5878180  79.5369360
  77.0760380  62.9378640  78.7012260  86.1743820  57.0130100  89.2030950
  86.5424640  56.1925310  89.5310520  85.3142020  57.0731990  89.6186600
  89.5405850  55.9687040  80.0118510  88.9119010  56.0732710  79.2976740
  89.0457770  56.1883820  80.8012390  83.9863990  67.6892630  77.4452490
  84.0875970  67.4856620  76.5154470  83.0865730  67.4350910  77.6500270
  81.5089880  58.2472990  81.4276390  80.8006030  58.7159330  81.8690000
  81.7934360  57.5895000  82.0621580  83.1345810  59.6669690  89.4268920
  83.6331060  60.1415510  90.0920770  83.2768760  58.7433210  89.6338950
  85.5405310  54.9723650  82.8672180  85.4173090  54.9909780  81.9181690
  86.4889870  55.0202590  82.9870580  82.6282100  70.2078950  82.1400160
  82.8823600  70.1700340  81.2179530  81.6794580  70.0812280  82.1328410
  79.7124900  56.5558070  78.8027100  80.5615430  56.9928220  78.7367290
  79.3456170  56.8678330  79.6299160  88.6334680  61.1270830  83.7158670
  87.6924820  61.1421060  83.8906360  88.9478750  60.3406790  84.1618970
  78.6116320  62.8090430  77.2762630  79.3779590  62.6971790  77.8388060
  78.6891010  62.1128400  76.6239400  77.3063080  60.2415500  77.9595520
  77.3866670  59.2943010  78.0712920  78.1982830  60.5722380  78.0656180
  78.1077790  70.3910890  85.0630060  78.8440270  69.8426350  85.3338630
  78.4918710  71.2566900  84.9236050  74.9923270  66.4584460  80.9371570
  74.0663050  66.7005600  80.9276980  75.4579700  67.2858720  80.8156320
  81.2180100  69.5641200  76.8855630  82.0108710  69.8530030  76.4337420
  80.6984450  69.1333370  76.2068110  87.3801070  69.4117120  92.8100460
  88.3322820  69.3275140  92.7600700  87.2329290  70.0758830  93.4834250
  74.8333880  62.0630420  93.1951690  75.3372900  61.4837700  93.7667920
  74.0941300  62.3470650  93.7328060  81.7357500  64.7844610  76.7497980
  81.6308140  64.1696960  77.4759360  81.5681720  64.2610500  75.9660990
  81.8871820  63.4701410  92.7287210  81.1217490  64.0386410  92.6441880
  82.0687780  63.1777620  91.8355440  84.9760230  63.8464640  77.3539970
  84.4270330  64.2933940  77.9982710  85.5979490  63.3413890  77.8777640
  89.0295170  65.2006740  93.2862230  89.7704640  65.5382500  92.7829690
  88.2667850  65.3698800  92.7332000  80.6435350  62.8055560  79.2505270
  81.0651770  62.6395430  80.0936660  80.7686190  61.9955790  78.7560410
  78.8062770  58.7852110  92.0576250  78.2759230  58.2943060  91.4299590
  79.4750840  59.2136310  91.5234180  83.1562990  61.8293170  76.4982370
  83.6768650  61.1142190  76.1323520  83.8031390  62.4679040  76.7982880
  87.7040830  63.2521570  91.8217440  88.1181850  63.4066650  92.6707860
  86.7691830  63.3776790  91.9843220  88.1763000  60.5917730  93.8256590
  88.7583770  59.8370050  93.7377070  88.3524770  61.1225170  93.0488070
  79.2935070  55.7514480  92.1373540  79.1991940  55.1335230  91.4124410
  78.7132460  56.4780770  91.9103450  82.0596510  54.3087720  89.1700930
  81.6113810  54.3311980  88.3246480  81.4261710  53.9106740  89.7671230
  82.4656060  63.2042050  89.7913370  82.8844170  64.0474780  89.6189610
  81.5464690  63.3414090  89.5620150  84.8019960  60.9358230  91.1751210
  84.9216170  60.3399370  91.9146050  85.6613960  60.9727920  90.7552510
  87.1407860  61.4895420  89.7513720  86.6143080  62.0138040  89.1478860
  87.4839200  62.1222810  90.3823450  79.5394250  58.8788790  76.1963430
  79.3383310  58.0156150  76.5576770  79.3686300  58.7922150  75.2585030
  80.3163480  69.5095060  90.9071100  79.7784570  70.2341120  90.5879800
  80.5697440  69.0325400  90.1168440  81.5688730  57.4779580  92.4327030
  82.1588420  57.1695430  93.1204850  80.7508970  57.0059330  92.5886930
  86.3882160  57.0945390  92.6660050  85.6997680  56.4326930  92.6010040
  87.1088180  56.6483660  93.1108510  87.0182560  53.6897020  78.7250310
  87.2984850  52.8464920  79.0809730  86.2448290  53.9220130  79.2389060
  78.3377050  55.9789410  76.1841310  78.6402950  55.9856840  75.2760460
  79.0771640  55.6287270  76.6808970  83.1725690  70.7446270  91.1657750
  83.0984390  71.6481410  91.4730120  82.2704530  70.4258170  91.1379820
  81.5561980  54.9224030  77.1697510  81.2083980  54.2448020  76.5899960
  81.7574750  54.4613540  77.9840900  83.7211020  69.9104780  78.7884110
  84.6161810  70.2489750  78.8102870  83.7528650  69.1884190  78.1608390
  77.3607180  65.2831830  77.0171110  77.7982050  65.8261500  77.6728690
  77.8454910  64.4578780  77.0267450  74.5752980  68.0720860  84.4691370
  74.9055990  67.2041920  84.2370010  75.0043980  68.2779380  85.2996330
  79.1714900  66.4029870  82.1293340  78.8710440  66.2794840  83.0297250
  79.0652390  65.5438460  81.7209070  75.0643190  68.9391450  87.2073000
  74.6274180  69.1192250  88.0397150  75.6320870  69.6966070  87.0654720
  74.8967620  61.4511680  83.5661880  74.2416460  61.1823320  82.9221580
  75.7345570  61.3416160  83.1163860  89.3857010  65.1660430  89.5926470
  88.5716850  65.5957590  89.8552260  89.7931210  65.7778840  88.9795520
  87.8458060  56.2452970  77.7880370  88.2642940  56.0583950  76.9477030
  87.5394120  55.3932020  78.0983300  75.9343550  61.8364250  88.1065220
  76.3016590  61.7491650  88.9861240  75.3654370  61.0730800  88.0072080
  75.4859550  58.7473340  92.0123640  74.5915600  58.7140100  92.3517350
  76.0257100  58.9460130  92.7774890  74.1105700  58.6610610  79.5087210
  73.2069780  58.9240810  79.3338870  74.5946320  58.9321780  78.7287170
  76.6532910  57.7176150  77.4181590  77.3624610  57.2959370  76.9328870
  75.9372850  57.7851380  76.7864940  76.3007070  53.7715480  76.4584240
  77.0235200  54.3124420  76.7765460  76.5731590  53.4978900  75.5825780
  75.9899260  53.0221670  86.3606860  76.6375450  52.4719050  85.9202020
  76.4101100  53.2764820  87.1822670  75.7431260  53.1777340  89.1032180
  75.3946080  53.6341160  89.8690360  75.4118960  52.2834470  89.1854610
  81.0501660  67.9056530  88.8695090  80.8093020  68.1731090  87.9825610
  81.9904300  68.0762260  88.9245950  83.2556080  54.3689220  92.6251600
  83.1944970  54.9611050  93.3747010  84.1956460  54.2615180  92.4801860
  85.8930640  54.0259280  92.2643890  86.5071050  54.3438570  91.6024970
  86.4380200  53.5407870  92.8839750  76.4151900  52.7053540  92.3782950
  76.9634890  52.5241590  91.6149060  76.4807210  51.9147650  92.9139260
  77.1883660  69.2959190  90.3883150  76.5943980  69.1643890  91.1273190
  77.1807500  68.4597330  89.9225250  86.6338680  52.5891420  88.5913180
  85.7598520  52.9226530  88.3886110  86.5249430  52.1164600  89.4165050
  87.5410660  54.7962290  89.9754900  87.2124020  53.9814050  89.5956630
  88.4892960  54.7532100  89.8520590  76.8195890  66.6617570  89.3391190
  76.0929950  66.0422860  89.2717140  76.8805040  67.0558180  88.4689270
  80.4240990  68.8762570  86.1240600  80.9406010  68.2649930  85.5988860
  81.0738370  69.3791350  86.6151610  83.1636490  69.7671060  86.9509580
  83.4514300  69.5125360  86.0742590  83.6759710  69.2148420  87.5415150
  84.3813500  53.5061260  87.5306090  83.5985290  53.9806760  87.8102850
  84.0876430  52.6016090  87.4219270  88.9334570  54.2084360  85.5755180
  89.3742660  54.1529460  84.7276780  88.6642160  55.1242370  85.6465360
  75.1025890  69.9791960  82.5487950  74.9347930  69.3462640  83.2469840
  74.2360400  70.1851360  82.1982140  75.7253910  53.8108740  80.0519810
  76.4833270  53.9237620  79.4783840  75.2631080  54.6477940  80.0063240
  82.2667720  55.9248010  83.0422120  81.4542230  55.5504900  82.7018000
  82.7709360  55.1693090  83.3443310  86.7692700  52.5890460  84.2805190
  87.3722070  53.1610670  84.7553710  86.0285690  53.1529900  84.0579090
  76.7088590  68.6725190  79.9938090  76.1836210  69.0533220  79.2900050
  76.6333170  69.2975960  80.7147800  78.0979060  54.3372790  78.5921780
  78.6271820  53.5502590  78.4629730  78.7307380  55.0163980  78.8257310
  80.2916900  54.0747930  81.6467170  79.6619640  53.3735240  81.8137300
  79.7522040  54.8352060  81.4300330  79.3081560  70.6207570  78.8687340
  80.0400380  70.3366850  78.3211230  79.5675230  70.3820850  79.7586720
  78.4696350  66.7372300  78.8733670  77.8405230  67.2057400  79.4219500
  78.5844180  65.8921520  79.3079860  85.9246070  60.7877960  65.0234870
  85.8440120  59.8732570  64.7526580  85.5110490  61.2845030  64.3174580
  84.0564110  62.5656980  66.9044140  83.2806210  62.0857420  67.1942710
  84.7077040  61.8862630  66.7300300  78.0729940  62.8776790  67.7819900
  77.2414820  62.6225500  68.1816410  78.6810920  62.9487560  68.5177820
  88.0771540  66.9717170  65.6843270  87.6153070  66.2004410  66.0130440
  88.8897090  66.9983240  66.1895720  78.0531200  66.9116880  67.9777920
  78.3559240  66.0214620  67.7988140  78.7974790  67.4687100  67.7500170
  76.4821890  57.8378680  61.5662290  75.5938590  58.1794650  61.4642170
  76.7663080  57.6379000  60.6743120  74.4454900  60.4384330  67.4501990
  75.0171010  59.6706530  67.4505630  74.4456440  60.7373090  66.5408600
  84.3034850  69.2575180  65.3047260  83.6846290  69.7132680  64.7341700
  85.1586630  69.4126640  64.9036960  83.4973100  65.2414170  66.9114300
  83.4281380  64.3004110  66.7503430  84.2592960  65.3315580  67.4836870
  75.6879770  55.8468690  69.2370920  75.5082610  54.9494440  69.5173680
  75.2859850  56.3940560  69.9117870  84.5278270  58.0484550  67.1383230
  84.9043090  57.1756430  67.0256900  84.4297780  58.3843250  66.2473670
  78.6583280  56.4210180  62.6000670  78.7650030  57.3213910  62.9069430
  77.7475640  56.3728150  62.3095320  88.3102390  55.5434990  64.0711570
  89.1312010  55.0531560  64.1137050  88.3436470  56.1332650  64.8243410
  76.3066440  58.3429190  67.8453260  76.9876550  58.6067560  68.4640660
  75.9914490  57.5030060  68.1791270  80.4991010  59.3896550  66.9325850
  81.0069230  59.8877520  67.5730870  81.0304250  58.6131750  66.7565210
  78.7827110  54.0295110  71.1989270  78.7845550  54.5467500  70.3935170
  77.9531420  53.5525290  71.1759200  85.1698200  64.1414420  62.6979170
  84.5515470  64.6063870  62.1341890  85.6821450  64.8341900  63.1148680
  80.0329960  63.6690290  69.3762770  79.6999340  64.2959210  70.0183840
  80.2096640  64.1952170  68.5964440  88.5463870  57.4835370  66.8439110
  87.8419440  57.7720260  67.4242220  88.9076030  58.2935480  66.4838670
  78.4642440  55.7405070  69.2059720  78.8059250  56.5847120  68.9113590
  77.5258250  55.8888810  69.3225060  79.2449060  65.6371090  71.1911950
  79.8623060  66.3122170  70.9096400  78.3842180  66.0459070  71.0999450
  74.5381400  64.8270950  60.0718800  74.1609380  65.3158050  59.3403700
  74.7954470  65.4996230  60.7025330  82.1470330  53.2287340  65.5304310
  82.4545310  52.6734230  64.8139810  81.2171030  53.3631800  65.3477300
  87.6985390  68.9454630  67.8211770  87.7112550  68.5416920  66.9534030
  87.1460610  69.7201920  67.7173200  88.9930810  65.6670850  62.9101940
  88.8827140  64.7245180  63.0351360  88.9899060  66.0286490  63.7964700
  87.0970830  63.8484470  69.1494380  87.5139620  63.6344580  68.3147840
  87.8210650  64.1057260  69.7203000  84.5351090  61.2936170  62.2664430
  83.6080370  61.2273550  62.4952900  84.6875910  62.2316300  62.1519670
  84.5220170  57.5653170  59.2631590  83.5823840  57.7267130  59.3484050
  84.8403430  58.2838850  58.7167580  88.5648380  62.8556470  62.7699680
  87.9460800  62.5176020  62.1225980  88.5472830  62.2116230  63.4778870
  88.0074940  59.0341010  70.1865490  87.5946120  59.8594720  70.4405480
  87.2750890  58.4486050  69.9941850  80.1407730  61.8200910  65.0484160
  79.7364730  61.1078160  64.5530060  80.2270850  61.4754150  65.9372200
  80.6089430  65.5068470  67.2123370  80.3117720  64.9013940  66.5331150
  81.5589250  65.5445780  67.1012730  78.8536350  58.5944120  68.8283200
  79.4050940  58.7039460  68.0536450  79.3679860  58.9681720  69.5438430
  88.6975040  69.0800340  70.8746470  88.2205600  69.8872530  70.6819080
  88.0136830  68.4278670  71.0272680  79.7007860  65.2450160  73.8631170
  78.8036390  65.4690130  74.1104570  79.7260730  65.3685100  72.9142570
  86.7413080  62.0943280  59.7772430  87.1806360  61.2565710  59.6310250
  87.4541500  62.7272680  59.8636570  78.5279080  62.1163480  72.4388540
  78.3886850  62.9886280  72.8075940  77.6460440  61.7736290  72.2936480
  84.8508460  67.0339350  63.7453670  85.2904370  67.7763680  63.3309060
  84.7895350  67.2765920  64.6692630  80.3259430  68.0585180  74.6473690
  80.2974860  68.4628130  73.7802120  80.1624400  67.1295540  74.4845290
  76.8412360  60.7145890  62.5490810  76.7209960  61.4407980  61.9372080
  76.5313250  59.9448800  62.0718720  74.4797730  63.8861030  68.3559450
  74.5578150  64.0209800  67.4115170  75.0939410  63.1776920  68.5487570
  75.7245360  65.5861220  64.7665630  75.3173440  65.7275810  63.9119230
  76.6158370  65.3021380  64.5636840  85.5424240  69.7353130  71.6732680
  86.0568910  69.6461140  72.4755110  84.6993320  70.0812830  71.9660590
  87.5178640  70.0208470  61.1016680  87.3579780  69.7311410  61.9998510
  87.3525350  69.2448600  60.5661910  79.9967020  69.8007000  62.8788300
  79.8209500  68.8842540  62.6656100  79.1422760  70.1594290  63.1186100
  87.2204770  67.5296030  59.6614680  86.5269930  67.5273320  59.0016960
  87.9627630  67.1055350  59.2308850  86.7854700  69.1558740  63.7363170
  87.2411650  68.3748120  64.0501790  87.1247220  69.8665560  64.2804350
  74.5357250  64.9275200  70.8953910  74.6988290  64.4580560  70.0773280
  75.0009700  64.4198760  71.5602750  79.3076020  54.0580960  65.9314480
  78.8644170  54.8390500  65.5999000  79.8661010  54.3810850  66.6385420
  83.5945830  56.9249480  71.5349800  83.1325200  57.1332500  72.3469740
  83.1923940  56.1108830  71.2320470  88.5950340  58.1458430  72.6646460
  87.7443930  57.8464180  72.9855530  88.4352130  58.3900440  71.7530280
  85.6900050  59.6460180  74.7645250  86.0153460  58.8123930  74.4247480
  86.4780380  60.1688700  74.9123580  82.4234840  53.6791660  60.8120310
  81.7989020  53.6751530  61.5373620  82.3364960  52.8122620  60.4156280
  81.3451920  54.6028290  67.7904080  81.6424250  55.5091120  67.7096100
  81.8937480  54.1147070  67.1763650  79.0990240  59.1814530  63.6595730
  78.8731160  58.9651700  64.5642350  78.3182770  59.6142990  63.3141700
  86.3288000  59.1877900  62.2586380  85.7296890  59.9113700  62.0750000
  86.8767610  59.1254680  61.4762830  81.5389450  60.0800110  74.3256000
  81.4433050  59.1394840  74.1756400  82.3821430  60.3015180  73.9304070
  84.9352870  57.8241440  64.2889660  85.3282440  58.1413640  63.4758350
  85.2969720  56.9453320  64.4034180  76.6699990  56.4913780  72.4789780
  76.2763380  57.3388990  72.6862560  75.9818390  55.8540150  72.6698420
  83.2445040  56.5748750  75.5486520  82.5543360  56.3820950  76.1832610
  83.9877340  56.8583390  76.0810820  73.9717040  54.4142240  66.5119860
  73.6830090  54.9845100  67.2244840  74.7162800  53.9346690  66.8751090
  74.1587270  58.3562360  57.7222580  74.0761940  59.2993120  57.8637570
  73.8070330  58.2137270  56.8434930  85.5208010  60.4147190  68.3840440
  84.7889130  60.9234000  68.7330540  85.1232350  59.5977170  68.0829220
  81.9585400  57.0901390  66.7892930  81.9621460  56.6491340  65.9397470
  82.8536520  57.4118720  66.8964750  77.8087780  56.9727880  65.7487140
  77.4687830  57.4503110  66.5054190  77.0465100  56.5193000  65.3888240
  82.0205550  58.0913470  59.7799690  82.1418370  58.0499950  60.7285510
  81.6354060  58.9537620  59.6246420  85.9833920  55.8680870  67.7963380
  86.0006660  56.3189520  68.6405230  85.7349500  54.9686510  68.0096820
  81.0327050  60.4014610  59.1782990  80.4643950  59.9532860  58.5518900
  81.7416050  60.7607390  58.6448140  89.4104670  53.2813050  73.6349760
  89.7350440  52.5502710  74.1607740  89.4461180  52.9626690  72.7330750
  76.1096230  64.3026630  73.0549720  75.7251020  63.6620300  73.6532680
  76.4208420  65.0062750  73.6244450  82.2593370  61.1503170  68.5358340
  82.6263500  60.6761740  69.2819680  82.0698430  62.0244740  68.8766680
  75.1233860  55.8946860  64.6651810  74.8380780  55.5302530  65.5030430
  75.0612720  55.1627320  64.0514950  80.0492740  60.1911810  70.8542550
  79.7449810  61.0703790  71.0792910  81.0039200  60.2511600  70.8899990
  78.5774530  64.3972800  61.4509400  77.8036790  63.8570420  61.2908120
  79.3069160  63.8779410  61.1127160  84.7972450  54.7876120  61.3865180
  83.9837060  54.2889290  61.3110490  84.6034400  55.6274370  60.9701530
  84.7181310  63.4647220  73.1304790  84.6518620  62.5442890  72.8762380
  84.0886450  63.5622660  73.8449430  87.5120840  59.1595770  59.6827340
  88.4000460  59.4713000  59.5078680  87.4825930  58.2868020  59.2907920
  78.6211930  64.0653180  65.0888210  79.1390600  63.2621440  65.0345100
  78.1695950  64.0032320  65.9305040  83.5081430  65.3319460  60.3615510
  83.8497130  66.0761690  59.8658830  82.6794140  65.6450580  60.7240340
  76.1056470  61.0314550  72.0013910  75.7471410  61.6968400  72.5887250
  75.8111030  60.1998100  72.3726530  79.3069590  61.4898790  74.8853460
  79.0069730  61.6355970  73.9881280  80.0780830  60.9304080  74.7926850
  84.6498040  66.2867790  72.8808590  84.6642580  65.3548750  72.6627500
  83.9423140  66.3727550  73.5198360  86.3908840  64.6535300  65.7261020
  86.7432660  64.0563430  65.0662390  85.5071170  64.3279530  65.8969270
  82.4772120  65.4132990  63.1331430  83.1643250  65.9602200  63.5139020
  81.6904540  65.9573720  63.1681040  74.6164520  61.0305810  58.6248510
  75.4859370  61.3130610  58.9084430  74.1254840  61.8441680  58.5097320
  81.7799330  62.4179020  62.7456790  82.2362110  63.2284270  62.9716980
  81.4287540  62.1002160  63.5775280  84.0831940  67.9285360  69.9749090
  84.7274160  68.1344740  70.6522510  84.4461380  67.1673760  69.5219940
  77.6811110  52.7616670  63.2179310  77.5525740  52.7534570  64.1664230
  76.8573130  53.0999760  62.8670320  85.3564020  65.9317710  68.6926540
  85.9986250  65.2310870  68.8058710  85.8813370  66.7116150  68.5123430
  89.2019740  66.2166330  58.4165680  88.9757320  65.4996770  59.0090320
  88.8115940  65.9678770  57.5787430  87.1301640  66.7312610  71.8962600
  87.4657880  67.3179300  72.5740520  86.2101980  66.6005320  72.1260390
  74.9835770  70.2433190  59.1910140  75.3433410  70.8422530  58.5367410
  74.8428110  70.7893080  59.9645170  74.6805040  54.5207790  72.6786010
  73.9663560  54.7204710  73.2838620  75.1000080  53.7447360  73.0500810
  88.7835990  64.1338270  60.0779840  88.4957690  64.5950960  60.8657720
  89.5788160  63.6736040  60.3464060  74.9677630  68.5088050  73.6652540
  75.0768750  67.5682790  73.5247930  74.3158190  68.7742800  73.0166270
  82.9590220  66.7803940  75.0650660  82.6387090  66.0613180  75.6096350
  82.2848580  67.4559010  75.1386720  81.0004390  67.6264390  60.0083810
  80.9914490  68.3594080  59.3928320  80.0802750  67.3795970  60.1010770
  76.6011030  62.8479280  60.7530570  75.9938980  63.5878180  60.7625870
  77.0760380  62.9378640  59.9268770  86.1743820  57.0130100  70.4287460
  86.5424640  56.1925310  70.7567030  85.3142020  57.0731990  70.8443110
  89.5405850  55.9687040  61.2375020  88.9119010  56.0732710  60.5233250
  89.0457770  56.1883820  62.0268900  83.9863990  67.6892630  58.6709000
  84.0875970  67.4856620  57.7410980  83.0865730  67.4350910  58.8756780
  81.5089880  58.2472990  62.6532900  80.8006030  58.7159330  63.0946510
  81.7934360  57.5895000  63.2878090  83.1345810  59.6669690  70.6525430
  83.6331060  60.1415510  71.3177280  83.2768760  58.7433210  70.8595460
  85.5405310  54.9723650  64.0928690  85.4173090  54.9909780  63.1438200
  86.4889870  55.0202590  64.2127090  82.6282100  70.2078950  63.3656670
  82.8823600  70.1700340  62.4436040  81.6794580  70.0812280  63.3584920
  79.7124900  56.5558070  60.0283610  80.5615430  56.9928220  59.9623800
  79.3456170  56.8678330  60.8555670  88.6334680  61.1270830  64.9415180
  87.6924820  61.1421060  65.1162870  88.9478750  60.3406790  65.3875480
  78.6116320  62.8090430  58.5019140  79.3779590  62.6971790  59.0644570
  78.6891010  62.1128400  57.8495910  77.3063080  60.2415500  59.1852030
  77.3866670  59.2943010  59.2969430  78.1982830  60.5722380  59.2912690
  78.1077790  70.3910890  66.2886570  78.8440270  69.8426350  66.5595140
  78.4918710  71.2566900  66.1492560  74.9923270  66.4584460  62.1628080
  74.0663050  66.7005600  62.1533490  75.4579700  67.2858720  62.0412830
  77.1136070  69.5756960  75.4772150  77.9148800  69.8969010  75.8907550
  76.5987890  69.2152540  76.1992060  81.2180100  69.5641200  58.1112140
  82.0108710  69.8530030  57.6593930  80.6984450  69.1333370  57.4324620
  85.9500700  65.6836830  75.4247560  85.3438860  65.7068430  74.6843310
  85.6454810  64.9519870  75.9614810  87.3801070  69.4117120  74.0356970
  88.3322820  69.3275140  73.9857210  87.2329290  70.0758830  74.7090760
  74.8333880  62.0630420  74.4208200  75.3372900  61.4837700  74.9924430
  74.0941300  62.3470650  74.9584570  81.7357500  64.7844610  57.9754490
  81.6308140  64.1696960  58.7015870  81.5681720  64.2610500  57.1917500
  81.8871820  63.4701410  73.9543720  81.1217490  64.0386410  73.8698390
  82.0687780  63.1777620  73.0611950  84.9760230  63.8464640  58.5796480
  84.4270330  64.2933940  59.2239220  85.5979490  63.3413890  59.1034150
  89.0295170  65.2006740  74.5118740  89.7704640  65.5382500  74.0086200
  88.2667850  65.3698800  73.9588510  76.8656960  60.2060010  75.3158270
  76.9062300  59.9073880  76.2243500  77.7202460  60.6067620  75.1565790
  80.6435350  62.8055560  60.4761780  81.0651770  62.6395430  61.3193170
  80.7686190  61.9955790  59.9816920  78.8062770  58.7852110  73.2832760
  78.2759230  58.2943060  72.6556100  79.4750840  59.2136310  72.7490690
  83.1562990  61.8293170  57.7238880  83.6768650  61.1142190  57.3580030
  83.8031390  62.4679040  58.0239390  87.7040830  63.2521570  73.0473950
  88.1181850  63.4066650  73.8964370  86.7691830  63.3776790  73.2099730
  88.1763000  60.5917730  75.0513100  88.7583770  59.8370050  74.9633580
  88.3524770  61.1225170  74.2744580  79.2935070  55.7514480  73.3630050
  79.1991940  55.1335230  72.6380920  78.7132460  56.4780770  73.1359960
  82.0596510  54.3087720  70.3957440  81.6113810  54.3311980  69.5502990
  81.4261710  53.9106740  70.9927740  82.4656060  63.2042050  71.0169880
  82.8844170  64.0474780  70.8446120  81.5464690  63.3414090  70.7876660
  84.8019960  60.9358230  72.4007720  84.9216170  60.3399370  73.1402560
  85.6613960  60.9727920  71.9809020  87.1407860  61.4895420  70.9770230
  86.6143080  62.0138040  70.3735370  87.4839200  62.1222810  71.6079960
  79.5394250  58.8788790  57.4219940  79.3383310  58.0156150  57.7833280
  79.3686300  58.7922150  56.4841540  80.3163480  69.5095060  72.1327610
  79.7784570  70.2341120  71.8136310  80.5697440  69.0325400  71.3424950
  81.5688730  57.4779580  73.6583540  82.1588420  57.1695430  74.3461360
  80.7508970  57.0059330  73.8143440  86.3882160  57.0945390  73.8916560
  85.6997680  56.4326930  73.8266550  87.1088180  56.6483660  74.3365020
  87.0182560  53.6897020  59.9506820  87.2984850  52.8464920  60.3066240
  86.2448290  53.9220130  60.4645570  78.3377050  55.9789410  57.4097820
  78.6402950  55.9856840  56.5016970  79.0771640  55.6287270  57.9065480
  83.1725690  70.7446270  72.3914260  83.0984390  71.6481410  72.6986630
  82.2704530  70.4258170  72.3636330  81.5561980  54.9224030  58.3954020
  81.2083980  54.2448020  57.8156470  81.7574750  54.4613540  59.2097410
  83.7211020  69.9104780  60.0140620  84.6161810  70.2489750  60.0359380
  83.7528650  69.1884190  59.3864900  77.3607180  65.2831830  58.2427620
  77.7982050  65.8261500  58.8985200  77.8454910  64.4578780  58.2523960
  74.5752980  68.0720860  65.6947880  74.9055990  67.2041920  65.4626520
  75.0043980  68.2779380  66.5252840  79.1714900  66.4029870  63.3549850
  78.8710440  66.2794840  64.2553760  79.0652390  65.5438460  62.9465580
  75.0643190  68.9391450  68.4329510  74.6274180  69.1192250  69.2653660
  75.6320870  69.6966070  68.2911230  74.8967620  61.4511680  64.7918390
  74.2416460  61.1823320  64.1478090  75.7345570  61.3416160  64.3420370
  89.3857010  65.1660430  70.8182980  88.5716850  65.5957590  71.0808770
  89.7931210  65.7778840  70.2052030  87.8458060  56.2452970  59.0136880
  88.2642940  56.0583950  58.1733540  87.5394120  55.3932020  59.3239810
  75.9343550  61.8364250  69.3321730  76.3016590  61.7491650  70.2117750
  75.3654370  61.0730800  69.2328590  75.4859550  58.7473340  73.2380150
  74.5915600  58.7140100  73.5773860  76.0257100  58.9460130  74.0031400
  74.1105700  58.6610610  60.7343720  73.2069780  58.9240810  60.5595380
  74.5946320  58.9321780  59.9543680  76.6532910  57.7176150  58.6438100
  77.3624610  57.2959370  58.1585380  75.9372850  57.7851380  58.0121450
  76.3007070  53.7715480  57.6840750  77.0235200  54.3124420  58.0021970
  76.5731590  53.4978900  56.8082290  75.9899260  53.0221670  67.5863370
  76.6375450  52.4719050  67.1458530  76.4101100  53.2764820  68.4079180
  75.7431260  53.1777340  70.3288690  75.3946080  53.6341160  71.0946870
  75.4118960  52.2834470  70.4111120  77.3495630  66.3496940  74.4941880
  77.3065260  65.9789850  75.3756340  77.4806640  67.2874510  74.6343700
  81.0501660  67.9056530  70.0951600  80.8093020  68.1731090  69.2082120
  81.9904300  68.0762260  70.1502460  83.2556080  54.3689220  73.8508110
  83.1944970  54.9611050  74.6003520  84.1956460  54.2615180  73.7058370
  85.8930640  54.0259280  73.4900400  86.5071050  54.3438570  72.8281480
  86.4380200  53.5407870  74.1096260  76.4151900  52.7053540  73.6039460
  76.9634890  52.5241590  72.8405570  76.4807210  51.9147650  74.1395770
  77.1883660  69.2959190  71.6139660  76.5943980  69.1643890  72.3529700
  77.1807500  68.4597330  71.1481760  86.6338680  52.5891420  69.8169690
  85.7598520  52.9226530  69.6142620  86.5249430  52.1164600  70.6421560
  87.5410660  54.7962290  71.2011410  87.2124020  53.9814050  70.8213140
  88.4892960  54.7532100  71.0777100  76.8195890  66.6617570  70.5647700
  76.0929950  66.0422860  70.4973650  76.8805040  67.0558180  69.6945780
  80.4240990  68.8762570  67.3497110  80.9406010  68.2649930  66.8245370
  81.0738370  69.3791350  67.8408120  83.1636490  69.7671060  68.1766090
  83.4514300  69.5125360  67.2999100  83.6759710  69.2148420  68.7671660
  84.3813500  53.5061260  68.7562600  83.5985290  53.9806760  69.0359360
  84.0876430  52.6016090  68.6475780  88.9334570  54.2084360  66.8011690
  89.3742660  54.1529460  65.9533290  88.6642160  55.1242370  66.8721870
  75.1025890  69.9791960  63.7744460  74.9347930  69.3462640  64.4726350
  74.2360400  70.1851360  63.4238650  75.7253910  53.8108740  61.2776320
  76.4833270  53.9237620  60.7040350  75.2631080  54.6477940  61.2319750
  82.2667720  55.9248010  64.2678630  81.4542230  55.5504900  63.9274510
  82.7709360  55.1693090  64.5699820  86.7692700  52.5890460  65.5061700
  87.3722070  53.1610670  65.9810220  86.0285690  53.1529900  65.2835600
  76.7088590  68.6725190  61.2194600  76.1836210  69.0533220  60.5156560
  76.6333170  69.2975960  61.9404310  78.0979060  54.3372790  59.8178290
  78.6271820  53.5502590  59.6886240  78.7307380  55.0163980  60.0513820
  80.2916900  54.0747930  62.8723680  79.6619640  53.3735240  63.0393810
  79.7522040  54.8352060  62.6556840  83.2308850  70.6887160  75.5434290
  84.1576160  70.4531430  75.5870250  83.2159280  71.5159160  75.0620320
  80.4172460  53.3531910  75.3076170  80.1356730  53.8565510  74.5436990
  80.7992160  52.5553660  74.9418300  79.3081560  70.6207570  60.0943850
  80.0400380  70.3366850  59.5467740  79.5675230  70.3820850  60.9843230
  78.4696350  66.7372300  60.0990180  77.8405230  67.2057400  60.6476010
  78.5844180  65.8921520  60.5336370  87.0187920  52.7685490  75.8856640
  86.9053370  53.0880100  76.7808160  87.8357660  53.1698000  75.5893920
  85.9246070  60.7877960  46.2491380  85.8440120  59.8732570  45.9783090
  85.5110490  61.2845030  45.5431090  84.0564110  62.5656980  48.1300650
  83.2806210  62.0857420  48.4199220  84.7077040  61.8862630  47.9556810
  78.0729940  62.8776790  49.0076410  77.2414820  62.6225500  49.4072920
  78.6810920  62.9487560  49.7434330  88.0771540  66.9717170  46.9099780
  87.6153070  66.2004410  47.2386950  88.8897090  66.9983240  47.4152230
  78.0531200  66.9116880  49.2034430  78.3559240  66.0214620  49.0244650
  78.7974790  67.4687100  48.9756680  76.4821890  57.8378680  42.7918800
  75.5938590  58.1794650  42.6898680  76.7663080  57.6379000  41.8999630
  74.4454900  60.4384330  48.6758500  75.0171010  59.6706530  48.6762140
  74.4456440  60.7373090  47.7665110  84.3034850  69.2575180  46.5303770
  83.6846290  69.7132680  45.9598210  85.1586630  69.4126640  46.1293470
  83.4973100  65.2414170  48.1370810  83.4281380  64.3004110  47.9759940
  84.2592960  65.3315580  48.7093380  75.6879770  55.8468690  50.4627430
  75.5082610  54.9494440  50.7430190  75.2859850  56.3940560  51.1374380
  84.5278270  58.0484550  48.3639740  84.9043090  57.1756430  48.2513410
  84.4297780  58.3843250  47.4730180  78.6583280  56.4210180  43.8257180
  78.7650030  57.3213910  44.1325940  77.7475640  56.3728150  43.5351830
  88.3102390  55.5434990  45.2968080  89.1312010  55.0531560  45.3393560
  88.3436470  56.1332650  46.0499920  76.3066440  58.3429190  49.0709770
  76.9876550  58.6067560  49.6897170  75.9914490  57.5030060  49.4047780
  80.4991010  59.3896550  48.1582360  81.0069230  59.8877520  48.7987380
  81.0304250  58.6131750  47.9821720  78.7827110  54.0295110  52.4245780
  78.7845550  54.5467500  51.6191680  77.9531420  53.5525290  52.4015710
  85.1698200  64.1414420  43.9235680  84.5515470  64.6063870  43.3598400
  85.6821450  64.8341900  44.3405190  80.0329960  63.6690290  50.6019280
  79.6999340  64.2959210  51.2440350  80.2096640  64.1952170  49.8220950
  88.5463870  57.4835370  48.0695620  87.8419440  57.7720260  48.6498730
  88.9076030  58.2935480  47.7095180  78.4642440  55.7405070  50.4316230
  78.8059250  56.5847120  50.1370100  77.5258250  55.8888810  50.5481570
  79.2449060  65.6371090  52.4168460  79.8623060  66.3122170  52.1352910
  78.3842180  66.0459070  52.3255960  74.5381400  64.8270950  41.2975310
  74.1609380  65.3158050  40.5660210  74.7954470  65.4996230  41.9281840
  82.1470330  53.2287340  46.7560820  82.4545310  52.6734230  46.0396320
  81.2171030  53.3631800  46.5733810  87.6985390  68.9454630  49.0468280
  87.7112550  68.5416920  48.1790540  87.1460610  69.7201920  48.9429710
  88.9930810  65.6670850  44.1358450  88.8827140  64.7245180  44.2607870
  88.9899060  66.0286490  45.0221210  87.0970830  63.8484470  50.3750890
  87.5139620  63.6344580  49.5404350  87.8210650  64.1057260  50.9459510
  84.5351090  61.2936170  43.4920940  83.6080370  61.2273550  43.7209410
  84.6875910  62.2316300  43.3776180  84.5220170  57.5653170  40.4888100
  83.5823840  57.7267130  40.5740560  84.8403430  58.2838850  39.9424090
  88.5648380  62.8556470  43.9956190  87.9460800  62.5176020  43.3482490
  88.5472830  62.2116230  44.7035380  88.0074940  59.0341010  51.4122000
  87.5946120  59.8594720  51.6661990  87.2750890  58.4486050  51.2198360
  80.1407730  61.8200910  46.2740670  79.7364730  61.1078160  45.7786570
  80.2270850  61.4754150  47.1628710  80.6089430  65.5068470  48.4379880
  80.3117720  64.9013940  47.7587660  81.5589250  65.5445780  48.3269240
  78.8536350  58.5944120  50.0539710  79.4050940  58.7039460  49.2792960
  79.3679860  58.9681720  50.7694940  88.6975040  69.0800340  52.1002980
  88.2205600  69.8872530  51.9075590  88.0136830  68.4278670  52.2529190
  79.7007860  65.2450160  55.0887680  78.8036390  65.4690130  55.3361080
  79.7260730  65.3685100  54.1399080  86.7413080  62.0943280  41.0028940
  87.1806360  61.2565710  40.8566760  87.4541500  62.7272680  41.0893080
  78.5279080  62.1163480  53.6645050  78.3886850  62.9886280  54.0332450
  77.6460440  61.7736290  53.5192990  84.8508460  67.0339350  44.9710180
  85.2904370  67.7763680  44.5565570  84.7895350  67.2765920  45.8949140
  80.3259430  68.0585180  55.8730200  80.2974860  68.4628130  55.0058630
  80.1624400  67.1295540  55.7101800  76.8412360  60.7145890  43.7747320
  76.7209960  61.4407980  43.1628590  76.5313250  59.9448800  43.2975230
  74.4797730  63.8861030  49.5815960  74.5578150  64.0209800  48.6371680
  75.0939410  63.1776920  49.7744080  75.7245360  65.5861220  45.9922140
  75.3173440  65.7275810  45.1375740  76.6158370  65.3021380  45.7893350
  85.5424240  69.7353130  52.8989190  86.0568910  69.6461140  53.7011620
  84.6993320  70.0812830  53.1917100  87.5178640  70.0208470  42.3273190
  87.3579780  69.7311410  43.2255020  87.3525350  69.2448600  41.7918420
  79.9967020  69.8007000  44.1044810  79.8209500  68.8842540  43.8912610
  79.1422760  70.1594290  44.3442610  87.2204770  67.5296030  40.8871190
  86.5269930  67.5273320  40.2273470  87.9627630  67.1055350  40.4565360
  86.7854700  69.1558740  44.9619680  87.2411650  68.3748120  45.2758300
  87.1247220  69.8665560  45.5060860  74.5357250  64.9275200  52.1210420
  74.6988290  64.4580560  51.3029790  75.0009700  64.4198760  52.7859260
  79.3076020  54.0580960  47.1570990  78.8644170  54.8390500  46.8255510
  79.8661010  54.3810850  47.8641930  83.5945830  56.9249480  52.7606310
  83.1325200  57.1332500  53.5726250  83.1923940  56.1108830  52.4576980
  88.5950340  58.1458430  53.8902970  87.7443930  57.8464180  54.2112040
  88.4352130  58.3900440  52.9786790  85.6900050  59.6460180  55.9901760
  86.0153460  58.8123930  55.6503990  86.4780380  60.1688700  56.1380090
  82.4234840  53.6791660  42.0376820  81.7989020  53.6751530  42.7630130
  82.3364960  52.8122620  41.6412790  81.3451920  54.6028290  49.0160590
  81.6424250  55.5091120  48.9352610  81.8937480  54.1147070  48.4020160
  79.0990240  59.1814530  44.8852240  78.8731160  58.9651700  45.7898860
  78.3182770  59.6142990  44.5398210  86.3288000  59.1877900  43.4842890
  85.7296890  59.9113700  43.3006510  86.8767610  59.1254680  42.7019340
  81.5389450  60.0800110  55.5512510  81.4433050  59.1394840  55.4012910
  82.3821430  60.3015180  55.1560580  84.9352870  57.8241440  45.5146170
  85.3282440  58.1413640  44.7014860  85.2969720  56.9453320  45.6290690
  76.6699990  56.4913780  53.7046290  76.2763380  57.3388990  53.9119070
  75.9818390  55.8540150  53.8954930  83.2445040  56.5748750  56.7743030
  82.5543360  56.3820950  57.4089120  83.9877340  56.8583390  57.3067330
  73.9717040  54.4142240  47.7376370  73.6830090  54.9845100  48.4501350
  74.7162800  53.9346690  48.1007600  85.5208010  60.4147190  49.6096950
  84.7889130  60.9234000  49.9587050  85.1232350  59.5977170  49.3085730
  81.9585400  57.0901390  48.0149440  81.9621460  56.6491340  47.1653980
  82.8536520  57.4118720  48.1221260  77.8087780  56.9727880  46.9743650
  77.4687830  57.4503110  47.7310700  77.0465100  56.5193000  46.6144750
  82.0205550  58.0913470  41.0056200  82.1418370  58.0499950  41.9542020
  81.6354060  58.9537620  40.8502930  85.9833920  55.8680870  49.0219890
  86.0006660  56.3189520  49.8661740  85.7349500  54.9686510  49.2353330
  81.0327050  60.4014610  40.4039500  80.4643950  59.9532860  39.7775410
  81.7416050  60.7607390  39.8704650  89.4104670  53.2813050  54.8606270
  89.7350440  52.5502710  55.3864250  89.4461180  52.9626690  53.9587260
  76.1096230  64.3026630  54.2806230  75.7251020  63.6620300  54.8789190
  76.4208420  65.0062750  54.8500960  82.2593370  61.1503170  49.7614850
  82.6263500  60.6761740  50.5076190  82.0698430  62.0244740  50.1023190
  75.1233860  55.8946860  45.8908320  74.8380780  55.5302530  46.7286940
  75.0612720  55.1627320  45.2771460  80.0492740  60.1911810  52.0799060
  79.7449810  61.0703790  52.3049420  81.0039200  60.2511600  52.1156500
  78.5774530  64.3972800  42.6765910  77.8036790  63.8570420  42.5164630
  79.3069160  63.8779410  42.3383670  84.7972450  54.7876120  42.6121690
  83.9837060  54.2889290  42.5367000  84.6034400  55.6274370  42.1958040
  84.7181310  63.4647220  54.3561300  84.6518620  62.5442890  54.1018890
  84.0886450  63.5622660  55.0705940  87.5120840  59.1595770  40.9083850
  88.4000460  59.4713000  40.7335190  87.4825930  58.2868020  40.5164430
  78.6211930  64.0653180  46.3144720  79.1390600  63.2621440  46.2601610
  78.1695950  64.0032320  47.1561550  83.5081430  65.3319460  41.5872020
  83.8497130  66.0761690  41.0915340  82.6794140  65.6450580  41.9496850
  76.1056470  61.0314550  53.2270420  75.7471410  61.6968400  53.8143760
  75.8111030  60.1998100  53.5983040  79.3069590  61.4898790  56.1109970
  79.0069730  61.6355970  55.2137790  80.0780830  60.9304080  56.0183360
  84.6498040  66.2867790  54.1065100  84.6642580  65.3548750  53.8884010
  83.9423140  66.3727550  54.7454870  86.3908840  64.6535300  46.9517530
  86.7432660  64.0563430  46.2918900  85.5071170  64.3279530  47.1225780
  82.4772120  65.4132990  44.3587940  83.1643250  65.9602200  44.7395530
  81.6904540  65.9573720  44.3937550  81.7799330  62.4179020  43.9713300
  82.2362110  63.2284270  44.1973490  81.4287540  62.1002160  44.8031790
  84.0831940  67.9285360  51.2005600  84.7274160  68.1344740  51.8779020
  84.4461380  67.1673760  50.7476450  77.6811110  52.7616670  44.4435820
  77.5525740  52.7534570  45.3920740  76.8573130  53.0999760  44.0926830
  85.3564020  65.9317710  49.9183050  85.9986250  65.2310870  50.0315220
  85.8813370  66.7116150  49.7379940  89.2019740  66.2166330  39.6422190
  88.9757320  65.4996770  40.2346830  88.8115940  65.9678770  38.8043940
  87.1301640  66.7312610  53.1219110  87.4657880  67.3179300  53.7997030
  86.2101980  66.6005320  53.3516900  74.9835770  70.2433190  40.4166650
  75.3433410  70.8422530  39.7623920  74.8428110  70.7893080  41.1901680
  74.6805040  54.5207790  53.9042520  73.9663560  54.7204710  54.5095130
  75.1000080  53.7447360  54.2757320  88.7835990  64.1338270  41.3036350
  88.4957690  64.5950960  42.0914230  89.5788160  63.6736040  41.5720570
  74.9677630  68.5088050  54.8909050  75.0768750  67.5682790  54.7504440
  74.3158190  68.7742800  54.2422780  82.9590220  66.7803940  56.2907170
  82.6387090  66.0613180  56.8352860  82.2848580  67.4559010  56.3643230
  81.0004390  67.6264390  41.2340320  80.9914490  68.3594080  40.6184830
  80.0802750  67.3795970  41.3267280  76.6011030  62.8479280  41.9787080
  75.9938980  63.5878180  41.9882380  77.0760380  62.9378640  41.1525280
  86.1743820  57.0130100  51.6543970  86.5424640  56.1925310  51.9823540
  85.3142020  57.0731990  52.0699620  89.5405850  55.9687040  42.4631530
  88.9119010  56.0732710  41.7489760  89.0457770  56.1883820  43.2525410
  83.9863990  67.6892630  39.8965510  84.0875970  67.4856620  38.9667490
  83.0865730  67.4350910  40.1013290  81.5089880  58.2472990  43.8789410
  80.8006030  58.7159330  44.3203020  81.7934360  57.5895000  44.5134600
  83.1345810  59.6669690  51.8781940  83.6331060  60.1415510  52.5433790
  83.2768760  58.7433210  52.0851970  85.5405310  54.9723650  45.3185200
  85.4173090  54.9909780  44.3694710  86.4889870  55.0202590  45.4383600
  82.6282100  70.2078950  44.5913180  82.8823600  70.1700340  43.6692550
  81.6794580  70.0812280  44.5841430  79.7124900  56.5558070  41.2540120
  80.5615430  56.9928220  41.1880310  79.3456170  56.8678330  42.0812180
  88.6334680  61.1270830  46.1671690  87.6924820  61.1421060  46.3419380
  88.9478750  60.3406790  46.6131990  78.6116320  62.8090430  39.7275650
  79.3779590  62.6971790  40.2901080  78.6891010  62.1128400  39.0752420
  77.3063080  60.2415500  40.4108540  77.3866670  59.2943010  40.5225940
  78.1982830  60.5722380  40.5169200  78.1077790  70.3910890  47.5143080
  78.8440270  69.8426350  47.7851650  78.4918710  71.2566900  47.3749070
  74.9923270  66.4584460  43.3884590  74.0663050  66.7005600  43.3790000
  75.4579700  67.2858720  43.2669340  77.1136070  69.5756960  56.7028660
  77.9148800  69.8969010  57.1164060  76.5987890  69.2152540  57.4248570
  81.2180100  69.5641200  39.3368650  82.0108710  69.8530030  38.8850440
  80.6984450  69.1333370  38.6581130  85.9500700  65.6836830  56.6504070
  85.3438860  65.7068430  55.9099820  85.6454810  64.9519870  57.1871320
  87.3801070  69.4117120  55.2613480  88.3322820  69.3275140  55.2113720
  87.2329290  70.0758830  55.9347270  74.8333880  62.0630420  55.6464710
  75.3372900  61.4837700  56.2180940  74.0941300  62.3470650  56.1841080
  81.7357500  64.7844610  39.2011000  81.6308140  64.1696960  39.9272380
  81.5681720  64.2610500  38.4174010  81.8871820  63.4701410  55.1800230
  81.1217490  64.0386410  55.0954900  82.0687780  63.1777620  54.2868460
  84.9760230  63.8464640  39.8052990  84.4270330  64.2933940  40.4495730
  85.5979490  63.3413890  40.3290660  89.0295170  65.2006740  55.7375250
  89.7704640  65.5382500  55.2342710  88.2667850  65.3698800  55.1845020
  76.8656960  60.2060010  56.5414780  76.9062300  59.9073880  57.4500010
  77.7202460  60.6067620  56.3822300  80.6435350  62.8055560  41.7018290
  81.0651770  62.6395430  42.5449680  80.7686190  61.9955790  41.2073430
  78.8062770  58.7852110  54.5089270  78.2759230  58.2943060  53.8812610
  79.4750840  59.2136310  53.9747200  83.1562990  61.8293170  38.9495390
  83.6768650  61.1142190  38.5836540  83.8031390  62.4679040  39.2495900
  87.7040830  63.2521570  54.2730460  88.1181850  63.4066650  55.1220880
  86.7691830  63.3776790  54.4356240  88.1763000  60.5917730  56.2769610
  88.7583770  59.8370050  56.1890090  88.3524770  61.1225170  55.5001090
  79.2935070  55.7514480  54.5886560  79.1991940  55.1335230  53.8637430
  78.7132460  56.4780770  54.3616470  82.0596510  54.3087720  51.6213950
  81.6113810  54.3311980  50.7759500  81.4261710  53.9106740  52.2184250
  82.4656060  63.2042050  52.2426390  82.8844170  64.0474780  52.0702630
  81.5464690  63.3414090  52.0133170  84.8019960  60.9358230  53.6264230
  84.9216170  60.3399370  54.3659070  85.6613960  60.9727920  53.2065530
  87.1407860  61.4895420  52.2026740  86.6143080  62.0138040  51.5991880
  87.4839200  62.1222810  52.8336470  79.5394250  58.8788790  38.6476450
  79.3383310  58.0156150  39.0089790  79.3686300  58.7922150  37.7098050
  80.3163480  69.5095060  53.3584120  79.7784570  70.2341120  53.0392820
  80.5697440  69.0325400  52.5681460  81.5688730  57.4779580  54.8840050
  82.1588420  57.1695430  55.5717870  80.7508970  57.0059330  55.0399950
  86.3882160  57.0945390  55.1173070  85.6997680  56.4326930  55.0523060
  87.1088180  56.6483660  55.5621530  87.0182560  53.6897020  41.1763330
  87.2984850  52.8464920  41.5322750  86.2448290  53.9220130  41.6902080
  78.3377050  55.9789410  38.6354330  78.6402950  55.9856840  37.7273480
  79.0771640  55.6287270  39.1321990  83.1725690  70.7446270  53.6170770
  83.0984390  71.6481410  53.9243140  82.2704530  70.4258170  53.5892840
  81.5561980  54.9224030  39.6210530  81.2083980  54.2448020  39.0412980
  81.7574750  54.4613540  40.4353920  83.7211020  69.9104780  41.2397130
  84.6161810  70.2489750  41.2615890  83.7528650  69.1884190  40.6121410
  77.3607180  65.2831830  39.4684130  77.7982050  65.8261500  40.1241710
  77.8454910  64.4578780  39.4780470  74.5752980  68.0720860  46.9204390
  74.9055990  67.2041920  46.6883030  75.0043980  68.2779380  47.7509350
  79.1714900  66.4029870  44.5806360  78.8710440  66.2794840  45.4810270
  79.0652390  65.5438460  44.1722090  75.0643190  68.9391450  49.6586020
  74.6274180  69.1192250  50.4910170  75.6320870  69.6966070  49.5167740
  74.8967620  61.4511680  46.0174900  74.2416460  61.1823320  45.3734600
  75.7345570  61.3416160  45.5676880  89.3857010  65.1660430  52.0439490
  88.5716850  65.5957590  52.3065280  89.7931210  65.7778840  51.4308540
  87.8458060  56.2452970  40.2393390  88.2642940  56.0583950  39.3990050
  87.5394120  55.3932020  40.5496320  75.9343550  61.8364250  50.5578240
  76.3016590  61.7491650  51.4374260  75.3654370  61.0730800  50.4585100
  75.4859550  58.7473340  54.4636660  74.5915600  58.7140100  54.8030370
  76.0257100  58.9460130  55.2287910  76.3007070  53.7715480  38.9097260
  77.0235200  54.3124420  39.2278480  76.5731590  53.4978900  38.0338800
  75.9899260  53.0221670  48.8119880  76.6375450  52.4719050  48.3715040
  76.4101100  53.2764820  49.6335690  75.7431260  53.1777340  51.5545200
  75.3946080  53.6341160  52.3203380  75.4118960  52.2834470  51.6367630
  77.3495630  66.3496940  55.7198390  77.3065260  65.9789850  56.6012850
  77.4806640  67.2874510  55.8600210  81.0501660  67.9056530  51.3208110
  80.8093020  68.1731090  50.4338630  81.9904300  68.0762260  51.3758970
  83.2556080  54.3689220  55.0764620  83.1944970  54.9611050  55.8260030
  84.1956460  54.2615180  54.9314880  85.8930640  54.0259280  54.7156910
  86.5071050  54.3438570  54.0537990  86.4380200  53.5407870  55.3352770
  76.4151900  52.7053540  54.8295970  76.9634890  52.5241590  54.0662080
  76.4807210  51.9147650  55.3652280  77.1883660  69.2959190  52.8396170
  76.5943980  69.1643890  53.5786210  77.1807500  68.4597330  52.3738270
  86.6338680  52.5891420  51.0426200  85.7598520  52.9226530  50.8399130
  86.5249430  52.1164600  51.8678070  87.5410660  54.7962290  52.4267920
  87.2124020  53.9814050  52.0469650  88.4892960  54.7532100  52.3033610
  76.8195890  66.6617570  51.7904210  76.0929950  66.0422860  51.7230160
  76.8805040  67.0558180  50.9202290  80.4240990  68.8762570  48.5753620
  80.9406010  68.2649930  48.0501880  81.0738370  69.3791350  49.0664630
  83.1636490  69.7671060  49.4022600  83.4514300  69.5125360  48.5255610
  83.6759710  69.2148420  49.9928170  84.3813500  53.5061260  49.9819110
  83.5985290  53.9806760  50.2615870  84.0876430  52.6016090  49.8732290
  88.9334570  54.2084360  48.0268200  89.3742660  54.1529460  47.1789800
  88.6642160  55.1242370  48.0978380  75.1025890  69.9791960  45.0000970
  74.9347930  69.3462640  45.6982860  74.2360400  70.1851360  44.6495160
  75.7253910  53.8108740  42.5032830  76.4833270  53.9237620  41.9296860
  75.2631080  54.6477940  42.4576260  82.2667720  55.9248010  45.4935140
  81.4542230  55.5504900  45.1531020  82.7709360  55.1693090  45.7956330
  86.7692700  52.5890460  46.7318210  87.3722070  53.1610670  47.2066730
  86.0285690  53.1529900  46.5092110  76.7088590  68.6725190  42.4451110
  76.1836210  69.0533220  41.7413070  76.6333170  69.2975960  43.1660820
  78.0979060  54.3372790  41.0434800  78.6271820  53.5502590  40.9142750
  78.7307380  55.0163980  41.2770330  80.2916900  54.0747930  44.0980190
  79.6619640  53.3735240  44.2650320  79.7522040  54.8352060  43.8813350
  83.2308850  70.6887160  56.7690800  84.1576160  70.4531430  56.8126760
  83.2159280  71.5159160  56.2876830  80.4172460  53.3531910  56.5332680
  80.1356730  53.8565510  55.7693500  80.7992160  52.5553660  56.1674810
  79.3081560  70.6207570  41.3200360  80.0400380  70.3366850  40.7724250
  79.5675230  70.3820850  42.2099740  78.4696350  66.7372300  41.3246690
  77.8405230  67.2057400  41.8732520  78.5844180  65.8921520  41.7592880
  87.0187920  52.7685490  57.1113150  86.9053370  53.0880100  58.0064670
  87.8357660  53.1698000  56.8150430  85.9246070  60.7877960  27.4747890
  85.8440120  59.8732570  27.2039600  85.5110490  61.2845030  26.7687600
  84.0564110  62.5656980  29.3557160  83.2806210  62.0857420  29.6455730
  84.7077040  61.8862630  29.1813320  78.0729940  62.8776790  30.2332920
  77.2414820  62.6225500  30.6329430  78.6810920  62.9487560  30.9690840
  88.0771540  66.9717170  28.1356290  87.6153070  66.2004410  28.4643460
  88.8897090  66.9983240  28.6408740  78.0531200  66.9116880  30.4290940
  78.3559240  66.0214620  30.2501160  78.7974790  67.4687100  30.2013190
  76.4821890  57.8378680  24.0175310  75.5938590  58.1794650  23.9155190
  76.7663080  57.6379000  23.1256140  74.4454900  60.4384330  29.9015010
  75.0171010  59.6706530  29.9018650  74.4456440  60.7373090  28.9921620
  84.3034850  69.2575180  27.7560280  83.6846290  69.7132680  27.1854720
  85.1586630  69.4126640  27.3549980  83.4973100  65.2414170  29.3627320
  83.4281380  64.3004110  29.2016450  84.2592960  65.3315580  29.9349890
  84.5278270  58.0484550  29.5896250  84.9043090  57.1756430  29.4769920
  84.4297780  58.3843250  28.6986690  78.6583280  56.4210180  25.0513690
  78.7650030  57.3213910  25.3582450  77.7475640  56.3728150  24.7608340
  88.3102390  55.5434990  26.5224590  89.1312010  55.0531560  26.5650070
  88.3436470  56.1332650  27.2756430  76.3066440  58.3429190  30.2966280
  76.9876550  58.6067560  30.9153680  75.9914490  57.5030060  30.6304290
  80.4991010  59.3896550  29.3838870  81.0069230  59.8877520  30.0243890
  81.0304250  58.6131750  29.2078230  78.7827110  54.0295110  33.6502290
  78.7845550  54.5467500  32.8448190  77.9531420  53.5525290  33.6272220
  85.1698200  64.1414420  25.1492190  84.5515470  64.6063870  24.5854910
  85.6821450  64.8341900  25.5661700  80.0329960  63.6690290  31.8275790
  79.6999340  64.2959210  32.4696860  80.2096640  64.1952170  31.0477460
  88.5463870  57.4835370  29.2952130  87.8419440  57.7720260  29.8755240
  88.9076030  58.2935480  28.9351690  78.4642440  55.7405070  31.6572740
  78.8059250  56.5847120  31.3626610  77.5258250  55.8888810  31.7738080
  79.2449060  65.6371090  33.6424970  79.8623060  66.3122170  33.3609420
  78.3842180  66.0459070  33.5512470  74.5381400  64.8270950  22.5231820
  74.1609380  65.3158050  21.7916720  74.7954470  65.4996230  23.1538350
  82.1470330  53.2287340  27.9817330  82.4545310  52.6734230  27.2652830
  81.2171030  53.3631800  27.7990320  87.6985390  68.9454630  30.2724790
  87.7112550  68.5416920  29.4047050  87.1460610  69.7201920  30.1686220
  88.9930810  65.6670850  25.3614960  88.8827140  64.7245180  25.4864380
  88.9899060  66.0286490  26.2477720  87.0970830  63.8484470  31.6007400
  87.5139620  63.6344580  30.7660860  87.8210650  64.1057260  32.1716020
  84.5351090  61.2936170  24.7177450  83.6080370  61.2273550  24.9465920
  84.6875910  62.2316300  24.6032690  84.5220170  57.5653170  21.7144610
  83.5823840  57.7267130  21.7997070  84.8403430  58.2838850  21.1680600
  88.5648380  62.8556470  25.2212700  87.9460800  62.5176020  24.5739000
  88.5472830  62.2116230  25.9291890  88.0074940  59.0341010  32.6378510
  87.5946120  59.8594720  32.8918500  87.2750890  58.4486050  32.4454870
  80.1407730  61.8200910  27.4997180  79.7364730  61.1078160  27.0043080
  80.2270850  61.4754150  28.3885220  80.6089430  65.5068470  29.6636390
  80.3117720  64.9013940  28.9844170  81.5589250  65.5445780  29.5525750
  78.8536350  58.5944120  31.2796220  79.4050940  58.7039460  30.5049470
  79.3679860  58.9681720  31.9951450  88.6975040  69.0800340  33.3259490
  88.2205600  69.8872530  33.1332100  88.0136830  68.4278670  33.4785700
  79.7007860  65.2450160  36.3144190  78.8036390  65.4690130  36.5617590
  79.7260730  65.3685100  35.3655590  86.7413080  62.0943280  22.2285450
  87.1806360  61.2565710  22.0823270  87.4541500  62.7272680  22.3149590
  78.5279080  62.1163480  34.8901560  78.3886850  62.9886280  35.2588960
  77.6460440  61.7736290  34.7449500  84.8508460  67.0339350  26.1966690
  85.2904370  67.7763680  25.7822080  84.7895350  67.2765920  27.1205650
  80.3259430  68.0585180  37.0986710  80.2974860  68.4628130  36.2315140
  80.1624400  67.1295540  36.9358310  76.8412360  60.7145890  25.0003830
  76.7209960  61.4407980  24.3885100  76.5313250  59.9448800  24.5231740
  74.4797730  63.8861030  30.8072470  74.5578150  64.0209800  29.8628190
  75.0939410  63.1776920  31.0000590  75.7245360  65.5861220  27.2178650
  75.3173440  65.7275810  26.3632250  76.6158370  65.3021380  27.0149860
  85.5424240  69.7353130  34.1245700  86.0568910  69.6461140  34.9268130
  84.6993320  70.0812830  34.4173610  87.5178640  70.0208470  23.5529700
  87.3579780  69.7311410  24.4511530  87.3525350  69.2448600  23.0174930
  79.9967020  69.8007000  25.3301320  79.8209500  68.8842540  25.1169120
  79.1422760  70.1594290  25.5699120  87.2204770  67.5296030  22.1127700
  86.5269930  67.5273320  21.4529980  87.9627630  67.1055350  21.6821870
  86.7854700  69.1558740  26.1876190  87.2411650  68.3748120  26.5014810
  87.1247220  69.8665560  26.7317370  74.5357250  64.9275200  33.3466930
  74.6988290  64.4580560  32.5286300  75.0009700  64.4198760  34.0115770
  79.3076020  54.0580960  28.3827500  78.8644170  54.8390500  28.0512020
  79.8661010  54.3810850  29.0898440  83.5945830  56.9249480  33.9862820
  83.1325200  57.1332500  34.7982760  83.1923940  56.1108830  33.6833490
  88.5950340  58.1458430  35.1159480  87.7443930  57.8464180  35.4368550
  88.4352130  58.3900440  34.2043300  85.6900050  59.6460180  37.2158270
  86.0153460  58.8123930  36.8760500  86.4780380  60.1688700  37.3636600
  82.4234840  53.6791660  23.2633330  81.7989020  53.6751530  23.9886640
  82.3364960  52.8122620  22.8669300  81.3451920  54.6028290  30.2417100
  81.6424250  55.5091120  30.1609120  81.8937480  54.1147070  29.6276670
  79.0990240  59.1814530  26.1108750  78.8731160  58.9651700  27.0155370
  78.3182770  59.6142990  25.7654720  86.3288000  59.1877900  24.7099400
  85.7296890  59.9113700  24.5263020  86.8767610  59.1254680  23.9275850
  81.5389450  60.0800110  36.7769020  81.4433050  59.1394840  36.6269420
  82.3821430  60.3015180  36.3817090  84.9352870  57.8241440  26.7402680
  85.3282440  58.1413640  25.9271370  85.2969720  56.9453320  26.8547200
  83.2445040  56.5748750  37.9999540  82.5543360  56.3820950  38.6345630
  83.9877340  56.8583390  38.5323840  74.1587270  58.3562360  20.1735600
  74.0761940  59.2993120  20.3150590  73.8070330  58.2137270  19.2947950
  85.5208010  60.4147190  30.8353460  84.7889130  60.9234000  31.1843560
  85.1232350  59.5977170  30.5342240  81.9585400  57.0901390  29.2405950
  81.9621460  56.6491340  28.3910490  82.8536520  57.4118720  29.3477770
  77.8087780  56.9727880  28.2000160  77.4687830  57.4503110  28.9567210
  77.0465100  56.5193000  27.8401260  82.0205550  58.0913470  22.2312710
  82.1418370  58.0499950  23.1798530  81.6354060  58.9537620  22.0759440
  85.9833920  55.8680870  30.2476400  86.0006660  56.3189520  31.0918250
  85.7349500  54.9686510  30.4609840  81.0327050  60.4014610  21.6296010
  80.4643950  59.9532860  21.0031920  81.7416050  60.7607390  21.0961160
  89.4104670  53.2813050  36.0862780  89.7350440  52.5502710  36.6120760
  89.4461180  52.9626690  35.1843770  76.1096230  64.3026630  35.5062740
  75.7251020  63.6620300  36.1045700  76.4208420  65.0062750  36.0757470
  82.2593370  61.1503170  30.9871360  82.6263500  60.6761740  31.7332700
  82.0698430  62.0244740  31.3279700  75.1233860  55.8946860  27.1164830
  74.8380780  55.5302530  27.9543450  75.0612720  55.1627320  26.5027970
  80.0492740  60.1911810  33.3055570  79.7449810  61.0703790  33.5305930
  81.0039200  60.2511600  33.3413010  78.5774530  64.3972800  23.9022420
  77.8036790  63.8570420  23.7421140  79.3069160  63.8779410  23.5640180
  84.7972450  54.7876120  23.8378200  83.9837060  54.2889290  23.7623510
  84.6034400  55.6274370  23.4214550  84.7181310  63.4647220  35.5817810
  84.6518620  62.5442890  35.3275400  84.0886450  63.5622660  36.2962450
  87.5120840  59.1595770  22.1340360  88.4000460  59.4713000  21.9591700
  87.4825930  58.2868020  21.7420940  78.6211930  64.0653180  27.5401230
  79.1390600  63.2621440  27.4858120  78.1695950  64.0032320  28.3818060
  83.5081430  65.3319460  22.8128530  83.8497130  66.0761690  22.3171850
  82.6794140  65.6450580  23.1753360  76.1056470  61.0314550  34.4526930
  75.7471410  61.6968400  35.0400270  75.8111030  60.1998100  34.8239550
  79.3069590  61.4898790  37.3366480  79.0069730  61.6355970  36.4394300
  80.0780830  60.9304080  37.2439870  84.6498040  66.2867790  35.3321610
  84.6642580  65.3548750  35.1140520  83.9423140  66.3727550  35.9711380
  86.3908840  64.6535300  28.1774040  86.7432660  64.0563430  27.5175410
  85.5071170  64.3279530  28.3482290  82.4772120  65.4132990  25.5844450
  83.1643250  65.9602200  25.9652040  81.6904540  65.9573720  25.6194060
  74.6164520  61.0305810  21.0761530  75.4859370  61.3130610  21.3597450
  74.1254840  61.8441680  20.9610340  81.7799330  62.4179020  25.1969810
  82.2362110  63.2284270  25.4230000  81.4287540  62.1002160  26.0288300
  84.0831940  67.9285360  32.4262110  84.7274160  68.1344740  33.1035530
  84.4461380  67.1673760  31.9732960  77.6811110  52.7616670  25.6692330
  77.5525740  52.7534570  26.6177250  76.8573130  53.0999760  25.3183340
  85.3564020  65.9317710  31.1439560  85.9986250  65.2310870  31.2571730
  85.8813370  66.7116150  30.9636450  89.2019740  66.2166330  20.8678700
  88.9757320  65.4996770  21.4603340  88.8115940  65.9678770  20.0300450
  87.1301640  66.7312610  34.3475620  87.4657880  67.3179300  35.0253540
  86.2101980  66.6005320  34.5773410  74.9835770  70.2433190  21.6423160
  75.3433410  70.8422530  20.9880430  74.8428110  70.7893080  22.4158190
  88.7835990  64.1338270  22.5292860  88.4957690  64.5950960  23.3170740
  89.5788160  63.6736040  22.7977080  74.9677630  68.5088050  36.1165560
  75.0768750  67.5682790  35.9760950  74.3158190  68.7742800  35.4679290
  82.9590220  66.7803940  37.5163680  82.6387090  66.0613180  38.0609370
  82.2848580  67.4559010  37.5899740  81.0004390  67.6264390  22.4596830
  80.9914490  68.3594080  21.8441340  80.0802750  67.3795970  22.5523790
  76.6011030  62.8479280  23.2043590  75.9938980  63.5878180  23.2138890
  77.0760380  62.9378640  22.3781790  86.1743820  57.0130100  32.8800480
  86.5424640  56.1925310  33.2080050  85.3142020  57.0731990  33.2956130
  89.5405850  55.9687040  23.6888040  88.9119010  56.0732710  22.9746270
  89.0457770  56.1883820  24.4781920  83.9863990  67.6892630  21.1222020
  84.0875970  67.4856620  20.1924000  83.0865730  67.4350910  21.3269800
  81.5089880  58.2472990  25.1045920  80.8006030  58.7159330  25.5459530
  81.7934360  57.5895000  25.7391110  83.1345810  59.6669690  33.1038450
  83.6331060  60.1415510  33.7690300  83.2768760  58.7433210  33.3108480
  85.5405310  54.9723650  26.5441710  85.4173090  54.9909780  25.5951220
  86.4889870  55.0202590  26.6640110  82.6282100  70.2078950  25.8169690
  82.8823600  70.1700340  24.8949060  81.6794580  70.0812280  25.8097940
  79.7124900  56.5558070  22.4796630  80.5615430  56.9928220  22.4136820
  79.3456170  56.8678330  23.3068690  88.6334680  61.1270830  27.3928200
  87.6924820  61.1421060  27.5675890  88.9478750  60.3406790  27.8388500
  78.6116320  62.8090430  20.9532160  79.3779590  62.6971790  21.5157590
  78.6891010  62.1128400  20.3008930  77.3063080  60.2415500  21.6365050
  77.3866670  59.2943010  21.7482450  78.1982830  60.5722380  21.7425710
  78.1077790  70.3910890  28.7399590  78.8440270  69.8426350  29.0108160
  78.4918710  71.2566900  28.6005580  74.9923270  66.4584460  24.6141100
  74.0663050  66.7005600  24.6046510  75.4579700  67.2858720  24.4925850
  77.1136070  69.5756960  37.9285170  77.9148800  69.8969010  38.3420570
  76.5987890  69.2152540  38.6505080  81.2180100  69.5641200  20.5625160
  82.0108710  69.8530030  20.1106950  80.6984450  69.1333370  19.8837640
  85.9500700  65.6836830  37.8760580  85.3438860  65.7068430  37.1356330
  85.6454810  64.9519870  38.4127830  87.3801070  69.4117120  36.4869990
  88.3322820  69.3275140  36.4370230  87.2329290  70.0758830  37.1603780
  74.8333880  62.0630420  36.8721220  75.3372900  61.4837700  37.4437450
  74.0941300  62.3470650  37.4097590  81.7357500  64.7844610  20.4267510
  81.6308140  64.1696960  21.1528890  81.5681720  64.2610500  19.6430520
  81.8871820  63.4701410  36.4056740  81.1217490  64.0386410  36.3211410
  82.0687780  63.1777620  35.5124970  84.9760230  63.8464640  21.0309500
  84.4270330  64.2933940  21.6752240  85.5979490  63.3413890  21.5547170
  89.0295170  65.2006740  36.9631760  89.7704640  65.5382500  36.4599220
  88.2667850  65.3698800  36.4101530  80.6435350  62.8055560  22.9274800
  81.0651770  62.6395430  23.7706190  80.7686190  61.9955790  22.4329940
  78.8062770  58.7852110  35.7345780  78.2759230  58.2943060  35.1069120
  79.4750840  59.2136310  35.2003710  83.1562990  61.8293170  20.1751900
  83.6768650  61.1142190  19.8093050  83.8031390  62.4679040  20.4752410
  87.7040830  63.2521570  35.4986970  88.1181850  63.4066650  36.3477390
  86.7691830  63.3776790  35.6612750  88.1763000  60.5917730  37.5026120
  88.7583770  59.8370050  37.4146600  88.3524770  61.1225170  36.7257600
  79.2935070  55.7514480  35.8143070  79.1991940  55.1335230  35.0893940
  78.7132460  56.4780770  35.5872980  82.0596510  54.3087720  32.8470460
  81.6113810  54.3311980  32.0016010  81.4261710  53.9106740  33.4440760
  82.4656060  63.2042050  33.4682900  82.8844170  64.0474780  33.2959140
  81.5464690  63.3414090  33.2389680  84.8019960  60.9358230  34.8520740
  84.9216170  60.3399370  35.5915580  85.6613960  60.9727920  34.4322040
  87.1407860  61.4895420  33.4283250  86.6143080  62.0138040  32.8248390
  87.4839200  62.1222810  34.0592980  79.5394250  58.8788790  19.8732960
  79.3383310  58.0156150  20.2346300  79.3686300  58.7922150  18.9354560
  80.3163480  69.5095060  34.5840630  79.7784570  70.2341120  34.2649330
  80.5697440  69.0325400  33.7937970  81.5688730  57.4779580  36.1096560
  82.1588420  57.1695430  36.7974380  80.7508970  57.0059330  36.2656460
  86.3882160  57.0945390  36.3429580  85.6997680  56.4326930  36.2779570
  87.1088180  56.6483660  36.7878040  87.0182560  53.6897020  22.4019840
  87.2984850  52.8464920  22.7579260  86.2448290  53.9220130  22.9158590
  78.3377050  55.9789410  19.8610840  78.6402950  55.9856840  18.9529990
  79.0771640  55.6287270  20.3578500  83.1725690  70.7446270  34.8427280
  83.0984390  71.6481410  35.1499650  82.2704530  70.4258170  34.8149350
  81.5561980  54.9224030  20.8467040  81.2083980  54.2448020  20.2669490
  81.7574750  54.4613540  21.6610430  83.7211020  69.9104780  22.4653640
  84.6161810  70.2489750  22.4872400  83.7528650  69.1884190  21.8377920
  77.3607180  65.2831830  20.6940640  77.7982050  65.8261500  21.3498220
  77.8454910  64.4578780  20.7036980  74.5752980  68.0720860  28.1460900
  74.9055990  67.2041920  27.9139540  75.0043980  68.2779380  28.9765860
  79.1714900  66.4029870  25.8062870  78.8710440  66.2794840  26.7066780
  79.0652390  65.5438460  25.3978600  75.0643190  68.9391450  30.8842530
  74.6274180  69.1192250  31.7166680  75.6320870  69.6966070  30.7424250
  74.8967620  61.4511680  27.2431410  74.2416460  61.1823320  26.5991110
  75.7345570  61.3416160  26.7933390  89.3857010  65.1660430  33.2696000
  88.5716850  65.5957590  33.5321790  89.7931210  65.7778840  32.6565050
  87.8458060  56.2452970  21.4649900  88.2642940  56.0583950  20.6246560
  87.5394120  55.3932020  21.7752830  75.9343550  61.8364250  31.7834750
  76.3016590  61.7491650  32.6630770  75.3654370  61.0730800  31.6841610
  74.1105700  58.6610610  23.1856740  73.2069780  58.9240810  23.0108400
  74.5946320  58.9321780  22.4056700  76.6532910  57.7176150  21.0951120
  77.3624610  57.2959370  20.6098400  75.9372850  57.7851380  20.4634470
  76.3007070  53.7715480  20.1353770  77.0235200  54.3124420  20.4534990
  76.5731590  53.4978900  19.2595310  77.3495630  66.3496940  36.9454900
  77.3065260  65.9789850  37.8269360  77.4806640  67.2874510  37.0856720
  81.0501660  67.9056530  32.5464620  80.8093020  68.1731090  31.6595140
  81.9904300  68.0762260  32.6015480  83.2556080  54.3689220  36.3021130
  83.1944970  54.9611050  37.0516540  84.1956460  54.2615180  36.1571390
  85.8930640  54.0259280  35.9413420  86.5071050  54.3438570  35.2794500
  86.4380200  53.5407870  36.5609280  77.1883660  69.2959190  34.0652680
  76.5943980  69.1643890  34.8042720  77.1807500  68.4597330  33.5994780
  86.6338680  52.5891420  32.2682710  85.7598520  52.9226530  32.0655640
  86.5249430  52.1164600  33.0934580  87.5410660  54.7962290  33.6524430
  87.2124020  53.9814050  33.2726160  88.4892960  54.7532100  33.5290120
  76.8195890  66.6617570  33.0160720  76.0929950  66.0422860  32.9486670
  76.8805040  67.0558180  32.1458800  80.4240990  68.8762570  29.8010130
  80.9406010  68.2649930  29.2758390  81.0738370  69.3791350  30.2921140
  83.1636490  69.7671060  30.6279110  83.4514300  69.5125360  29.7512120
  83.6759710  69.2148420  31.2184680  84.3813500  53.5061260  31.2075620
  83.5985290  53.9806760  31.4872380  84.0876430  52.6016090  31.0988800
  88.9334570  54.2084360  29.2524710  89.3742660  54.1529460  28.4046310
  88.6642160  55.1242370  29.3234890  75.1025890  69.9791960  26.2257480
  74.9347930  69.3462640  26.9239370  74.2360400  70.1851360  25.8751670
  75.7253910  53.8108740  23.7289340  76.4833270  53.9237620  23.1553370
  75.2631080  54.6477940  23.6832770  82.2667720  55.9248010  26.7191650
  81.4542230  55.5504900  26.3787530  82.7709360  55.1693090  27.0212840
  86.7692700  52.5890460  27.9574720  87.3722070  53.1610670  28.4323240
  86.0285690  53.1529900  27.7348620  76.7088590  68.6725190  23.6707620
  76.1836210  69.0533220  22.9669580  76.6333170  69.2975960  24.3917330
  78.0979060  54.3372790  22.2691310  78.6271820  53.5502590  22.1399260
  78.7307380  55.0163980  22.5026840  80.2916900  54.0747930  25.3236700
  79.6619640  53.3735240  25.4906830  79.7522040  54.8352060  25.1069860
  83.2308850  70.6887160  37.9947310  84.1576160  70.4531430  38.0383270
  83.2159280  71.5159160  37.5133340  80.4172460  53.3531910  37.7589190
  80.1356730  53.8565510  36.9950010  80.7992160  52.5553660  37.3931320
  79.3081560  70.6207570  22.5456870  80.0400380  70.3366850  21.9980760
  79.5675230  70.3820850  23.4356250  78.4696350  66.7372300  22.5503200
  77.8405230  67.2057400  23.0989030  78.5844180  65.8921520  22.9849390
  87.0187920  52.7685490  38.3369660  86.9053370  53.0880100  39.2321180
  87.8357660  53.1698000  38.0406940  85.9246070  60.7877960   8.7004400
  85.8440120  59.8732570   8.4296110  85.5110490  61.2845030   7.9944110
  84.0564110  62.5656980  10.5813670  83.2806210  62.0857420  10.8712240
  84.7077040  61.8862630  10.4069830  78.0729940  62.8776790  11.4589430
  77.2414820  62.6225500  11.8585940  78.6810920  62.9487560  12.1947350
  88.0771540  66.9717170   9.3612800  87.6153070  66.2004410   9.6899970
  88.8897090  66.9983240   9.8665250  78.0531200  66.9116880  11.6547450
  78.3559240  66.0214620  11.4757670  78.7974790  67.4687100  11.4269700
  76.4821890  57.8378680   5.2431820  75.5938590  58.1794650   5.1411700
  76.7663080  57.6379000   4.3512650  74.4454900  60.4384330  11.1271520
  75.0171010  59.6706530  11.1275160  74.4456440  60.7373090  10.2178130
  84.3034850  69.2575180   8.9816790  83.6846290  69.7132680   8.4111230
  85.1586630  69.4126640   8.5806490  83.4973100  65.2414170  10.5883830
  83.4281380  64.3004110  10.4272960  84.2592960  65.3315580  11.1606400
  75.6879770  55.8468690  12.9140450  75.5082610  54.9494440  13.1943210
  75.2859850  56.3940560  13.5887400  84.5278270  58.0484550  10.8152760
  84.9043090  57.1756430  10.7026430  84.4297780  58.3843250   9.9243200
  78.6583280  56.4210180   6.2770200  78.7650030  57.3213910   6.5838960
  77.7475640  56.3728150   5.9864850  88.3102390  55.5434990   7.7481100
  89.1312010  55.0531560   7.7906580  88.3436470  56.1332650   8.5012940
  76.3066440  58.3429190  11.5222790  76.9876550  58.6067560  12.1410190
  75.9914490  57.5030060  11.8560800  80.4991010  59.3896550  10.6095380
  81.0069230  59.8877520  11.2500400  81.0304250  58.6131750  10.4334740
  78.7827110  54.0295110  14.8758800  78.7845550  54.5467500  14.0704700
  77.9531420  53.5525290  14.8528730  85.1698200  64.1414420   6.3748700
  84.5515470  64.6063870   5.8111420  85.6821450  64.8341900   6.7918210
  80.0329960  63.6690290  13.0532300  79.6999340  64.2959210  13.6953370
  80.2096640  64.1952170  12.2733970  88.5463870  57.4835370  10.5208640
  87.8419440  57.7720260  11.1011750  88.9076030  58.2935480  10.1608200
  78.4642440  55.7405070  12.8829250  78.8059250  56.5847120  12.5883120
  77.5258250  55.8888810  12.9994590  79.2449060  65.6371090  14.8681480
  79.8623060  66.3122170  14.5865930  78.3842180  66.0459070  14.7768980
  74.5381400  64.8270950   3.7488330  74.1609380  65.3158050   3.0173230
  74.7954470  65.4996230   4.3794860  82.1470330  53.2287340   9.2073840
  82.4545310  52.6734230   8.4909340  81.2171030  53.3631800   9.0246830
  87.6985390  68.9454630  11.4981300  87.7112550  68.5416920  10.6303560
  87.1460610  69.7201920  11.3942730  88.9930810  65.6670850   6.5871470
  88.8827140  64.7245180   6.7120890  88.9899060  66.0286490   7.4734230
  87.0970830  63.8484470  12.8263910  87.5139620  63.6344580  11.9917370
  87.8210650  64.1057260  13.3972530  84.5351090  61.2936170   5.9433960
  83.6080370  61.2273550   6.1722430  84.6875910  62.2316300   5.8289200
  84.5220170  57.5653170   2.9401120  83.5823840  57.7267130   3.0253580
  84.8403430  58.2838850   2.3937110  88.5648380  62.8556470   6.4469210
  87.9460800  62.5176020   5.7995510  88.5472830  62.2116230   7.1548400
  88.0074940  59.0341010  13.8635020  87.5946120  59.8594720  14.1175010
  87.2750890  58.4486050  13.6711380  80.1407730  61.8200910   8.7253690
  79.7364730  61.1078160   8.2299590  80.2270850  61.4754150   9.6141730
  80.6089430  65.5068470  10.8892900  80.3117720  64.9013940  10.2100680
  81.5589250  65.5445780  10.7782260  78.8536350  58.5944120  12.5052730
  79.4050940  58.7039460  11.7305980  79.3679860  58.9681720  13.2207960
  88.6975040  69.0800340  14.5516000  88.2205600  69.8872530  14.3588610
  88.0136830  68.4278670  14.7042210  79.7007860  65.2450160  17.5400700
  78.8036390  65.4690130  17.7874100  79.7260730  65.3685100  16.5912100
  86.7413080  62.0943280   3.4541960  87.1806360  61.2565710   3.3079780
  87.4541500  62.7272680   3.5406100  78.5279080  62.1163480  16.1158070
  78.3886850  62.9886280  16.4845470  77.6460440  61.7736290  15.9706010
  84.8508460  67.0339350   7.4223200  85.2904370  67.7763680   7.0078590
  84.7895350  67.2765920   8.3462160  80.3259430  68.0585180  18.3243220
  80.2974860  68.4628130  17.4571650  80.1624400  67.1295540  18.1614820
  76.8412360  60.7145890   6.2260340  76.7209960  61.4407980   5.6141610
  76.5313250  59.9448800   5.7488250  74.4797730  63.8861030  12.0328980
  74.5578150  64.0209800  11.0884700  75.0939410  63.1776920  12.2257100
  75.7245360  65.5861220   8.4435160  75.3173440  65.7275810   7.5888760
  76.6158370  65.3021380   8.2406370  85.5424240  69.7353130  15.3502210
  86.0568910  69.6461140  16.1524640  84.6993320  70.0812830  15.6430120
  87.5178640  70.0208470   4.7786210  87.3579780  69.7311410   5.6768040
  87.3525350  69.2448600   4.2431440  79.9967020  69.8007000   6.5557830
  79.8209500  68.8842540   6.3425630  79.1422760  70.1594290   6.7955630
  87.2204770  67.5296030   3.3384210  86.5269930  67.5273320   2.6786490
  87.9627630  67.1055350   2.9078380  86.7854700  69.1558740   7.4132700
  87.2411650  68.3748120   7.7271320  87.1247220  69.8665560   7.9573880
  74.5357250  64.9275200  14.5723440  74.6988290  64.4580560  13.7542810
  75.0009700  64.4198760  15.2372280  79.3076020  54.0580960   9.6084010
  78.8644170  54.8390500   9.2768530  79.8661010  54.3810850  10.3154950
  83.5945830  56.9249480  15.2119330  83.1325200  57.1332500  16.0239270
  83.1923940  56.1108830  14.9090000  88.5950340  58.1458430  16.3415990
  87.7443930  57.8464180  16.6625060  88.4352130  58.3900440  15.4299810
  85.6900050  59.6460180  18.4414780  86.0153460  58.8123930  18.1017010
  86.4780380  60.1688700  18.5893110  82.4234840  53.6791660   4.4889840
  81.7989020  53.6751530   5.2143150  82.3364960  52.8122620   4.0925810
  81.3451920  54.6028290  11.4673610  81.6424250  55.5091120  11.3865630
  81.8937480  54.1147070  10.8533180  79.0990240  59.1814530   7.3365260
  78.8731160  58.9651700   8.2411880  78.3182770  59.6142990   6.9911230
  86.3288000  59.1877900   5.9355910  85.7296890  59.9113700   5.7519530
  86.8767610  59.1254680   5.1532360  81.5389450  60.0800110  18.0025530
  81.4433050  59.1394840  17.8525930  82.3821430  60.3015180  17.6073600
  84.9352870  57.8241440   7.9659190  85.3282440  58.1413640   7.1527880
  85.2969720  56.9453320   8.0803710  76.6699990  56.4913780  16.1559310
  76.2763380  57.3388990  16.3632090  75.9818390  55.8540150  16.3467950
  83.2445040  56.5748750  19.2256050  82.5543360  56.3820950  19.8602140
  83.9877340  56.8583390  19.7580350  73.9717040  54.4142240  10.1889390
  73.6830090  54.9845100  10.9014370  74.7162800  53.9346690  10.5520620
  85.5208010  60.4147190  12.0609970  84.7889130  60.9234000  12.4100070
  85.1232350  59.5977170  11.7598750  81.9585400  57.0901390  10.4662460
  81.9621460  56.6491340   9.6167000  82.8536520  57.4118720  10.5734280
  77.8087780  56.9727880   9.4256670  77.4687830  57.4503110  10.1823720
  77.0465100  56.5193000   9.0657770  82.0205550  58.0913470   3.4569220
  82.1418370  58.0499950   4.4055040  81.6354060  58.9537620   3.3015950
  85.9833920  55.8680870  11.4732910  86.0006660  56.3189520  12.3174760
  85.7349500  54.9686510  11.6866350  81.0327050  60.4014610   2.8552520
  80.4643950  59.9532860   2.2288430  81.7416050  60.7607390   2.3217670
  89.4104670  53.2813050  17.3119290  89.7350440  52.5502710  17.8377270
  89.4461180  52.9626690  16.4100280  76.1096230  64.3026630  16.7319250
  75.7251020  63.6620300  17.3302210  76.4208420  65.0062750  17.3013980
  82.2593370  61.1503170  12.2127870  82.6263500  60.6761740  12.9589210
  82.0698430  62.0244740  12.5536210  75.1233860  55.8946860   8.3421340
  74.8380780  55.5302530   9.1799960  75.0612720  55.1627320   7.7284480
  80.0492740  60.1911810  14.5312080  79.7449810  61.0703790  14.7562440
  81.0039200  60.2511600  14.5669520  78.5774530  64.3972800   5.1278930
  77.8036790  63.8570420   4.9677650  79.3069160  63.8779410   4.7896690
  84.7972450  54.7876120   5.0634710  83.9837060  54.2889290   4.9880020
  84.6034400  55.6274370   4.6471060  84.7181310  63.4647220  16.8074320
  84.6518620  62.5442890  16.5531910  84.0886450  63.5622660  17.5218960
  87.5120840  59.1595770   3.3596870  88.4000460  59.4713000   3.1848210
  87.4825930  58.2868020   2.9677450  78.6211930  64.0653180   8.7657740
  79.1390600  63.2621440   8.7114630  78.1695950  64.0032320   9.6074570
  83.5081430  65.3319460   4.0385040  83.8497130  66.0761690   3.5428360
  82.6794140  65.6450580   4.4009870  76.1056470  61.0314550  15.6783440
  75.7471410  61.6968400  16.2656780  75.8111030  60.1998100  16.0496060
  79.3069590  61.4898790  18.5622990  79.0069730  61.6355970  17.6650810
  80.0780830  60.9304080  18.4696380  84.6498040  66.2867790  16.5578120
  84.6642580  65.3548750  16.3397030  83.9423140  66.3727550  17.1967890
  86.3908840  64.6535300   9.4030550  86.7432660  64.0563430   8.7431920
  85.5071170  64.3279530   9.5738800  82.4772120  65.4132990   6.8100960
  83.1643250  65.9602200   7.1908550  81.6904540  65.9573720   6.8450570
  74.6164520  61.0305810   2.3018040  75.4859370  61.3130610   2.5853960
  74.1254840  61.8441680   2.1866850  81.7799330  62.4179020   6.4226320
  82.2362110  63.2284270   6.6486510  81.4287540  62.1002160   7.2544810
  84.0831940  67.9285360  13.6518620  84.7274160  68.1344740  14.3292040
  84.4461380  67.1673760  13.1989470  77.6811110  52.7616670   6.8948840
  77.5525740  52.7534570   7.8433760  76.8573130  53.0999760   6.5439850
  85.3564020  65.9317710  12.3696070  85.9986250  65.2310870  12.4828240
  85.8813370  66.7116150  12.1892960  87.1301640  66.7312610  15.5732130
  87.4657880  67.3179300  16.2510050  86.2101980  66.6005320  15.8029920
  74.9835770  70.2433190   2.8679670  75.3433410  70.8422530   2.2136940
  74.8428110  70.7893080   3.6414700  74.6805040  54.5207790  16.3555540
  73.9663560  54.7204710  16.9608150  75.1000080  53.7447360  16.7270340
  88.7835990  64.1338270   3.7549370  88.4957690  64.5950960   4.5427250
  89.5788160  63.6736040   4.0233590  74.9677630  68.5088050  17.3422070
  75.0768750  67.5682790  17.2017460  74.3158190  68.7742800  16.6935800
  82.9590220  66.7803940  18.7420190  82.6387090  66.0613180  19.2865880
  82.2848580  67.4559010  18.8156250  81.0004390  67.6264390   3.6853340
  80.9914490  68.3594080   3.0697850  80.0802750  67.3795970   3.7780300
  76.6011030  62.8479280   4.4300100  75.9938980  63.5878180   4.4395400
  77.0760380  62.9378640   3.6038300  86.1743820  57.0130100  14.1056990
  86.5424640  56.1925310  14.4336560  85.3142020  57.0731990  14.5212640
  89.5405850  55.9687040   4.9144550  88.9119010  56.0732710   4.2002780
  89.0457770  56.1883820   5.7038430  81.5089880  58.2472990   6.3302430
  80.8006030  58.7159330   6.7716040  81.7934360  57.5895000   6.9647620
  83.1345810  59.6669690  14.3294960  83.6331060  60.1415510  14.9946810
  83.2768760  58.7433210  14.5364990  85.5405310  54.9723650   7.7698220
  85.4173090  54.9909780   6.8207730  86.4889870  55.0202590   7.8896620
  82.6282100  70.2078950   7.0426200  82.8823600  70.1700340   6.1205570
  81.6794580  70.0812280   7.0354450  79.7124900  56.5558070   3.7053140
  80.5615430  56.9928220   3.6393330  79.3456170  56.8678330   4.5325200
  88.6334680  61.1270830   8.6184710  87.6924820  61.1421060   8.7932400
  88.9478750  60.3406790   9.0645010  77.3063080  60.2415500   2.8621560
  77.3866670  59.2943010   2.9738960  78.1982830  60.5722380   2.9682220
  78.1077790  70.3910890   9.9656100  78.8440270  69.8426350  10.2364670
  78.4918710  71.2566900   9.8262090  74.9923270  66.4584460   5.8397610
  74.0663050  66.7005600   5.8303020  75.4579700  67.2858720   5.7182360
  77.1136070  69.5756960  19.1541680  77.9148800  69.8969010  19.5677080
  76.5987890  69.2152540  19.8761590  85.9500700  65.6836830  19.1017090
  85.3438860  65.7068430  18.3612840  85.6454810  64.9519870  19.6384340
  87.3801070  69.4117120  17.7126500  88.3322820  69.3275140  17.6626740
  87.2329290  70.0758830  18.3860290  74.8333880  62.0630420  18.0977730
  75.3372900  61.4837700  18.6693960  74.0941300  62.3470650  18.6354100
  81.8871820  63.4701410  17.6313250  81.1217490  64.0386410  17.5467920
  82.0687780  63.1777620  16.7381480  84.9760230  63.8464640   2.2566010
  84.4270330  64.2933940   2.9008750  85.5979490  63.3413890   2.7803680
  89.0295170  65.2006740  18.1888270  89.7704640  65.5382500  17.6855730
  88.2667850  65.3698800  17.6358040  76.8656960  60.2060010  18.9927800
  76.9062300  59.9073880  19.9013030  77.7202460  60.6067620  18.8335320
  80.6435350  62.8055560   4.1531310  81.0651770  62.6395430   4.9962700
  80.7686190  61.9955790   3.6586450  78.8062770  58.7852110  16.9602290
  78.2759230  58.2943060  16.3325630  79.4750840  59.2136310  16.4260220
  87.7040830  63.2521570  16.7243480  88.1181850  63.4066650  17.5733900
  86.7691830  63.3776790  16.8869260  88.1763000  60.5917730  18.7282630
  88.7583770  59.8370050  18.6403110  88.3524770  61.1225170  17.9514110
  79.2935070  55.7514480  17.0399580  79.1991940  55.1335230  16.3150450
  78.7132460  56.4780770  16.8129490  82.0596510  54.3087720  14.0726970
  81.6113810  54.3311980  13.2272520  81.4261710  53.9106740  14.6697270
  82.4656060  63.2042050  14.6939410  82.8844170  64.0474780  14.5215650
  81.5464690  63.3414090  14.4646190  84.8019960  60.9358230  16.0777250
  84.9216170  60.3399370  16.8172090  85.6613960  60.9727920  15.6578550
  87.1407860  61.4895420  14.6539760  86.6143080  62.0138040  14.0504900
  87.4839200  62.1222810  15.2849490  80.3163480  69.5095060  15.8097140
  79.7784570  70.2341120  15.4905840  80.5697440  69.0325400  15.0194480
  81.5688730  57.4779580  17.3353070  82.1588420  57.1695430  18.0230890
  80.7508970  57.0059330  17.4912970  86.3882160  57.0945390  17.5686090
  85.6997680  56.4326930  17.5036080  87.1088180  56.6483660  18.0134550
  87.0182560  53.6897020   3.6276350  87.2984850  52.8464920   3.9835770
  86.2448290  53.9220130   4.1415100  83.1725690  70.7446270  16.0683790
  83.0984390  71.6481410  16.3756160  82.2704530  70.4258170  16.0405860
  83.7211020  69.9104780   3.6910150  84.6161810  70.2489750   3.7128910
  83.7528650  69.1884190   3.0634430  77.3607180  65.2831830   1.9197150
  77.7982050  65.8261500   2.5754730  77.8454910  64.4578780   1.9293490
  74.5752980  68.0720860   9.3717410  74.9055990  67.2041920   9.1396050
  75.0043980  68.2779380  10.2022370  79.1714900  66.4029870   7.0319380
  78.8710440  66.2794840   7.9323290  79.0652390  65.5438460   6.6235110
  75.0643190  68.9391450  12.1099040  74.6274180  69.1192250  12.9423190
  75.6320870  69.6966070  11.9680760  74.8967620  61.4511680   8.4687920
  74.2416460  61.1823320   7.8247620  75.7345570  61.3416160   8.0189900
  89.3857010  65.1660430  14.4952510  88.5716850  65.5957590  14.7578300
  89.7931210  65.7778840  13.8821560  87.8458060  56.2452970   2.6906410
  88.2642940  56.0583950   1.8503070  87.5394120  55.3932020   3.0009340
  75.9343550  61.8364250  13.0091260  76.3016590  61.7491650  13.8887280
  75.3654370  61.0730800  12.9098120  75.4859550  58.7473340  16.9149680
  74.5915600  58.7140100  17.2543390  76.0257100  58.9460130  17.6800930
  74.1105700  58.6610610   4.4113250  73.2069780  58.9240810   4.2364910
  74.5946320  58.9321780   3.6313210  76.6532910  57.7176150   2.3207630
  77.3624610  57.2959370   1.8354910  75.9372850  57.7851380   1.6890980
  75.9899260  53.0221670  11.2632900  76.6375450  52.4719050  10.8228060
  76.4101100  53.2764820  12.0848710  75.7431260  53.1777340  14.0058220
  75.3946080  53.6341160  14.7716400  75.4118960  52.2834470  14.0880650
  77.3495630  66.3496940  18.1711410  77.3065260  65.9789850  19.0525870
  77.4806640  67.2874510  18.3113230  81.0501660  67.9056530  13.7721130
  80.8093020  68.1731090  12.8851650  81.9904300  68.0762260  13.8271990
  83.2556080  54.3689220  17.5277640  83.1944970  54.9611050  18.2773050
  84.1956460  54.2615180  17.3827900  85.8930640  54.0259280  17.1669930
  86.5071050  54.3438570  16.5051010  86.4380200  53.5407870  17.7865790
  76.4151900  52.7053540  17.2808990  76.9634890  52.5241590  16.5175100
  76.4807210  51.9147650  17.8165300  77.1883660  69.2959190  15.2909190
  76.5943980  69.1643890  16.0299230  77.1807500  68.4597330  14.8251290
  86.6338680  52.5891420  13.4939220  85.7598520  52.9226530  13.2912150
  86.5249430  52.1164600  14.3191090  87.5410660  54.7962290  14.8780940
  87.2124020  53.9814050  14.4982670  88.4892960  54.7532100  14.7546630
  76.8195890  66.6617570  14.2417230  76.0929950  66.0422860  14.1743180
  76.8805040  67.0558180  13.3715310  80.4240990  68.8762570  11.0266640
  80.9406010  68.2649930  10.5014900  81.0738370  69.3791350  11.5177650
  83.1636490  69.7671060  11.8535620  83.4514300  69.5125360  10.9768630
  83.6759710  69.2148420  12.4441190  84.3813500  53.5061260  12.4332130
  83.5985290  53.9806760  12.7128890  84.0876430  52.6016090  12.3245310
  88.9334570  54.2084360  10.4781220  89.3742660  54.1529460   9.6302820
  88.6642160  55.1242370  10.5491400  75.1025890  69.9791960   7.4513990
  74.9347930  69.3462640   8.1495880  74.2360400  70.1851360   7.1008180
  75.7253910  53.8108740   4.9545850  76.4833270  53.9237620   4.3809880
  75.2631080  54.6477940   4.9089280  82.2667720  55.9248010   7.9448160
  81.4542230  55.5504900   7.6044040  82.7709360  55.1693090   8.2469350
  86.7692700  52.5890460   9.1831230  87.3722070  53.1610670   9.6579750
  86.0285690  53.1529900   8.9605130  76.7088590  68.6725190   4.8964130
  76.1836210  69.0533220   4.1926090  76.6333170  69.2975960   5.6173840
  78.0979060  54.3372790   3.4947820  78.6271820  53.5502590   3.3655770
  78.7307380  55.0163980   3.7283350  80.2916900  54.0747930   6.5493210
  79.6619640  53.3735240   6.7163340  79.7522040  54.8352060   6.3326370
  83.2308850  70.6887160  19.2203820  84.1576160  70.4531430  19.2639780
  83.2159280  71.5159160  18.7389850  80.4172460  53.3531910  18.9845700
  80.1356730  53.8565510  18.2206520  80.7992160  52.5553660  18.6187830
  79.3081560  70.6207570   3.7713380  80.0400380  70.3366850   3.2237270
  79.5675230  70.3820850   4.6612760  78.4696350  66.7372300   3.7759710
  77.8405230  67.2057400   4.3245540  78.5844180  65.8921520   4.2105900
  87.0187920  52.7685490  19.5626170  86.9053370  53.0880100  20.4577690
  87.8357660  53.1698000  19.2663450  85.9246070  42.0134470  83.7978360
  85.8440120  41.0989080  83.5270070  85.5110490  42.5101540  83.0918070
  84.0564110  43.7913490  85.6787630  83.2806210  43.3113930  85.9686200
  84.7077040  43.1119140  85.5043790  78.0729940  44.1033300  86.5563390
  77.2414820  43.8482010  86.9559900  78.6810920  44.1744070  87.2921310
  88.0771540  48.1973680  84.4586760  87.6153070  47.4260920  84.7873930
  88.8897090  48.2239750  84.9639210  78.0531200  48.1373390  86.7521410
  78.3559240  47.2471130  86.5731630  78.7974790  48.6943610  86.5243660
  76.4821890  39.0635190  80.3405780  75.5938590  39.4051160  80.2385660
  76.7663080  38.8635510  79.4486610  74.4454900  41.6640840  86.2245480
  75.0171010  40.8963040  86.2249120  74.4456440  41.9629600  85.3152090
  84.3034850  50.4831690  84.0790750  83.6846290  50.9389190  83.5085190
  85.1586630  50.6383150  83.6780450  83.4973100  46.4670680  85.6857790
  83.4281380  45.5260620  85.5246920  84.2592960  46.5572090  86.2580360
  75.6879770  37.0725200  88.0114410  75.5082610  36.1750950  88.2917170
  75.2859850  37.6197070  88.6861360  84.5278270  39.2741060  85.9126720
  84.9043090  38.4012940  85.8000390  84.4297780  39.6099760  85.0217160
  78.6583280  37.6466690  81.3744160  78.7650030  38.5470420  81.6812920
  77.7475640  37.5984660  81.0838810  88.3102390  36.7691500  82.8455060
  89.1312010  36.2788070  82.8880540  88.3436470  37.3589160  83.5986900
  76.3066440  39.5685700  86.6196750  76.9876550  39.8324070  87.2384150
  75.9914490  38.7286570  86.9534760  80.4991010  40.6153060  85.7069340
  81.0069230  41.1134030  86.3474360  81.0304250  39.8388260  85.5308700
  78.7827110  35.2551620  89.9732760  78.7845550  35.7724010  89.1678660
  77.9531420  34.7781800  89.9502690  85.1698200  45.3670930  81.4722660
  84.5515470  45.8320380  80.9085380  85.6821450  46.0598410  81.8892170
  80.0329960  44.8946800  88.1506260  79.6999340  45.5215720  88.7927330
  80.2096640  45.4208680  87.3707930  88.5463870  38.7091880  85.6182600
  87.8419440  38.9976770  86.1985710  88.9076030  39.5191990  85.2582160
  78.4642440  36.9661580  87.9803210  78.8059250  37.8103630  87.6857080
  77.5258250  37.1145320  88.0968550  79.2449060  46.8627600  89.9655440
  79.8623060  47.5378680  89.6839890  78.3842180  47.2715580  89.8742940
  74.5381400  46.0527460  78.8462290  74.1609380  46.5414560  78.1147190
  74.7954470  46.7252740  79.4768820  82.1470330  34.4543850  84.3047800
  82.4545310  33.8990740  83.5883300  81.2171030  34.5888310  84.1220790
  87.6985390  50.1711140  86.5955260  87.7112550  49.7673430  85.7277520
  87.1460610  50.9458430  86.4916690  88.9930810  46.8927360  81.6845430
  88.8827140  45.9501690  81.8094850  88.9899060  47.2543000  82.5708190
  87.0970830  45.0740980  87.9237870  87.5139620  44.8601090  87.0891330
  87.8210650  45.3313770  88.4946490  84.5351090  42.5192680  81.0407920
  83.6080370  42.4530060  81.2696390  84.6875910  43.4572810  80.9263160
  84.5220170  38.7909680  78.0375080  83.5823840  38.9523640  78.1227540
  84.8403430  39.5095360  77.4911070  88.5648380  44.0812980  81.5443170
  87.9460800  43.7432530  80.8969470  88.5472830  43.4372740  82.2522360
  88.0074940  40.2597520  88.9608980  87.5946120  41.0851230  89.2148970
  87.2750890  39.6742560  88.7685340  80.1407730  43.0457420  83.8227650
  79.7364730  42.3334670  83.3273550  80.2270850  42.7010660  84.7115690
  80.6089430  46.7324980  85.9866860  80.3117720  46.1270450  85.3074640
  81.5589250  46.7702290  85.8756220  78.8536350  39.8200630  87.6026690
  79.4050940  39.9295970  86.8279940  79.3679860  40.1938230  88.3181920
  88.6975040  50.3056850  89.6489960  88.2205600  51.1129040  89.4562570
  88.0136830  49.6535180  89.8016170  79.7007860  46.4706670  92.6374660
  78.8036390  46.6946640  92.8848060  79.7260730  46.5941610  91.6886060
  86.7413080  43.3199790  78.5515920  87.1806360  42.4822220  78.4053740
  87.4541500  43.9529190  78.6380060  78.5279080  43.3419990  91.2132030
  78.3886850  44.2142790  91.5819430  77.6460440  42.9992800  91.0679970
  84.8508460  48.2595860  82.5197160  85.2904370  49.0020190  82.1052550
  84.7895350  48.5022430  83.4436120  80.3259430  49.2841690  93.4217180
  80.2974860  49.6884640  92.5545610  80.1624400  48.3552050  93.2588780
  76.8412360  41.9402400  81.3234300  76.7209960  42.6664490  80.7115570
  76.5313250  41.1705310  80.8462210  74.4797730  45.1117540  87.1302940
  74.5578150  45.2466310  86.1858660  75.0939410  44.4033430  87.3231060
  75.7245360  46.8117730  83.5409120  75.3173440  46.9532320  82.6862720
  76.6158370  46.5277890  83.3380330  85.5424240  50.9609640  90.4476170
  86.0568910  50.8717650  91.2498600  84.6993320  51.3069340  90.7404080
  87.5178640  51.2464980  79.8760170  87.3579780  50.9567920  80.7742000
  87.3525350  50.4705110  79.3405400  79.9967020  51.0263510  81.6531790
  79.8209500  50.1099050  81.4399590  79.1422760  51.3850800  81.8929590
  87.2204770  48.7552540  78.4358170  86.5269930  48.7529830  77.7760450
  87.9627630  48.3311860  78.0052340  86.7854700  50.3815250  82.5106660
  87.2411650  49.6004630  82.8245280  87.1247220  51.0922070  83.0547840
  74.5357250  46.1531710  89.6697400  74.6988290  45.6837070  88.8516770
  75.0009700  45.6455270  90.3346240  79.3076020  35.2837470  84.7057970
  78.8644170  36.0647010  84.3742490  79.8661010  35.6067360  85.4128910
  83.5945830  38.1505990  90.3093290  83.1325200  38.3589010  91.1213230
  83.1923940  37.3365340  90.0063960  88.5950340  39.3714940  91.4389950
  87.7443930  39.0720690  91.7599020  88.4352130  39.6156950  90.5273770
  85.6900050  40.8716690  93.5388740  86.0153460  40.0380440  93.1990970
  86.4780380  41.3945210  93.6867070  82.4234840  34.9048170  79.5863800
  81.7989020  34.9008040  80.3117110  82.3364960  34.0379130  79.1899770
  81.3451920  35.8284800  86.5647570  81.6424250  36.7347630  86.4839590
  81.8937480  35.3403580  85.9507140  79.0990240  40.4071040  82.4339220
  78.8731160  40.1908210  83.3385840  78.3182770  40.8399500  82.0885190
  86.3288000  40.4134410  81.0329870  85.7296890  41.1370210  80.8493490
  86.8767610  40.3511190  80.2506320  81.5389450  41.3056620  93.0999490
  81.4433050  40.3651350  92.9499890  82.3821430  41.5271690  92.7047560
  84.9352870  39.0497950  83.0633150  85.3282440  39.3670150  82.2501840
  85.2969720  38.1709830  83.1777670  76.6699990  37.7170290  91.2533270
  76.2763380  38.5645500  91.4606050  75.9818390  37.0796660  91.4441910
  73.9717040  35.6398750  85.2863350  73.6830090  36.2101610  85.9988330
  74.7162800  35.1603200  85.6494580  74.1587270  39.5818870  76.4966070
  74.0761940  40.5249630  76.6381060  73.8070330  39.4393780  75.6178420
  85.5208010  41.6403700  87.1583930  84.7889130  42.1490510  87.5074030
  85.1232350  40.8233680  86.8572710  81.9585400  38.3157900  85.5636420
  81.9621460  37.8747850  84.7140960  82.8536520  38.6375230  85.6708240
  77.8087780  38.1984390  84.5230630  77.4687830  38.6759620  85.2797680
  77.0465100  37.7449510  84.1631730  82.0205550  39.3169980  78.5543180
  82.1418370  39.2756460  79.5029000  81.6354060  40.1794130  78.3989910
  85.9833920  37.0937380  86.5706870  86.0006660  37.5446030  87.4148720
  85.7349500  36.1943020  86.7840310  81.0327050  41.6271120  77.9526480
  80.4643950  41.1789370  77.3262390  81.7416050  41.9863900  77.4191630
  89.4104670  34.5069560  92.4093250  89.7350440  33.7759220  92.9351230
  89.4461180  34.1883200  91.5074240  76.1096230  45.5283140  91.8293210
  75.7251020  44.8876810  92.4276170  76.4208420  46.2319260  92.3987940
  82.2593370  42.3759680  87.3101830  82.6263500  41.9018250  88.0563170
  82.0698430  43.2501250  87.6510170  75.1233860  37.1203370  83.4395300
  74.8380780  36.7559040  84.2773920  75.0612720  36.3883830  82.8258440
  80.0492740  41.4168320  89.6286040  79.7449810  42.2960300  89.8536400
  81.0039200  41.4768110  89.6643480  78.5774530  45.6229310  80.2252890
  77.8036790  45.0826930  80.0651610  79.3069160  45.1035920  79.8870650
  84.7972450  36.0132630  80.1608670  83.9837060  35.5145800  80.0853980
  84.6034400  36.8530880  79.7445020  84.7181310  44.6903730  91.9048280
  84.6518620  43.7699400  91.6505870  84.0886450  44.7879170  92.6192920
  87.5120840  40.3852280  78.4570830  88.4000460  40.6969510  78.2822170
  87.4825930  39.5124530  78.0651410  78.6211930  45.2909690  83.8631700
  79.1390600  44.4877950  83.8088590  78.1695950  45.2288830  84.7048530
  83.5081430  46.5575970  79.1359000  83.8497130  47.3018200  78.6402320
  82.6794140  46.8707090  79.4983830  76.1056470  42.2571060  90.7757400
  75.7471410  42.9224910  91.3630740  75.8111030  41.4254610  91.1470020
  79.3069590  42.7155300  93.6596950  79.0069730  42.8612480  92.7624770
  80.0780830  42.1560590  93.5670340  84.6498040  47.5124300  91.6552080
  84.6642580  46.5805260  91.4370990  83.9423140  47.5984060  92.2941850
  86.3908840  45.8791810  84.5004510  86.7432660  45.2819940  83.8405880
  85.5071170  45.5536040  84.6712760  82.4772120  46.6389500  81.9074920
  83.1643250  47.1858710  82.2882510  81.6904540  47.1830230  81.9424530
  74.6164520  42.2562320  77.3992000  75.4859370  42.5387120  77.6827920
  74.1254840  43.0698190  77.2840810  81.7799330  43.6435530  81.5200280
  82.2362110  44.4540780  81.7460470  81.4287540  43.3258670  82.3518770
  84.0831940  49.1541870  88.7492580  84.7274160  49.3601250  89.4266000
  84.4461380  48.3930270  88.2963430  77.6811110  33.9873180  81.9922800
  77.5525740  33.9791080  82.9407720  76.8573130  34.3256270  81.6413810
  85.3564020  47.1574220  87.4670030  85.9986250  46.4567380  87.5802200
  85.8813370  47.9372660  87.2866920  89.2019740  47.4422840  77.1909170
  88.9757320  46.7253280  77.7833810  88.8115940  47.1935280  76.3530920
  87.1301640  47.9569120  90.6706090  87.4657880  48.5435810  91.3484010
  86.2101980  47.8261830  90.9003880  74.9835770  51.4689700  77.9653630
  75.3433410  52.0679040  77.3110900  74.8428110  52.0149590  78.7388660
  74.6805040  35.7464300  91.4529500  73.9663560  35.9461220  92.0582110
  75.1000080  34.9703870  91.8244300  88.7835990  45.3594780  78.8523330
  88.4957690  45.8207470  79.6401210  89.5788160  44.8992550  79.1207550
  74.9677630  49.7344560  92.4396030  75.0768750  48.7939300  92.2991420
  74.3158190  49.9999310  91.7909760  81.0004390  48.8520900  78.7827300
  80.9914490  49.5850590  78.1671810  80.0802750  48.6052480  78.8754260
  76.6011030  44.0735790  79.5274060  75.9938980  44.8134690  79.5369360
  77.0760380  44.1635150  78.7012260  86.1743820  38.2386610  89.2030950
  86.5424640  37.4181820  89.5310520  85.3142020  38.2988500  89.6186600
  89.5405850  37.1943550  80.0118510  88.9119010  37.2989220  79.2976740
  89.0457770  37.4140330  80.8012390  83.9863990  48.9149140  77.4452490
  84.0875970  48.7113130  76.5154470  83.0865730  48.6607420  77.6500270
  81.5089880  39.4729500  81.4276390  80.8006030  39.9415840  81.8690000
  81.7934360  38.8151510  82.0621580  83.1345810  40.8926200  89.4268920
  83.6331060  41.3672020  90.0920770  83.2768760  39.9689720  89.6338950
  85.5405310  36.1980160  82.8672180  85.4173090  36.2166290  81.9181690
  86.4889870  36.2459100  82.9870580  82.6282100  51.4335460  82.1400160
  82.8823600  51.3956850  81.2179530  81.6794580  51.3068790  82.1328410
  79.7124900  37.7814580  78.8027100  80.5615430  38.2184730  78.7367290
  79.3456170  38.0934840  79.6299160  88.6334680  42.3527340  83.7158670
  87.6924820  42.3677570  83.8906360  88.9478750  41.5663300  84.1618970
  78.6116320  44.0346940  77.2762630  79.3779590  43.9228300  77.8388060
  78.6891010  43.3384910  76.6239400  77.3063080  41.4672010  77.9595520
  77.3866670  40.5199520  78.0712920  78.1982830  41.7978890  78.0656180
  78.1077790  51.6167400  85.0630060  78.8440270  51.0682860  85.3338630
  78.4918710  52.4823410  84.9236050  74.9923270  47.6840970  80.9371570
  74.0663050  47.9262110  80.9276980  75.4579700  48.5115230  80.8156320
  81.2180100  50.7897710  76.8855630  82.0108710  51.0786540  76.4337420
  80.6984450  50.3589880  76.2068110  87.3801070  50.6373630  92.8100460
  88.3322820  50.5531650  92.7600700  87.2329290  51.3015340  93.4834250
  74.8333880  43.2886930  93.1951690  75.3372900  42.7094210  93.7667920
  74.0941300  43.5727160  93.7328060  81.7357500  46.0101120  76.7497980
  81.6308140  45.3953470  77.4759360  81.5681720  45.4867010  75.9660990
  81.8871820  44.6957920  92.7287210  81.1217490  45.2642920  92.6441880
  82.0687780  44.4034130  91.8355440  84.9760230  45.0721150  77.3539970
  84.4270330  45.5190450  77.9982710  85.5979490  44.5670400  77.8777640
  89.0295170  46.4263250  93.2862230  89.7704640  46.7639010  92.7829690
  88.2667850  46.5955310  92.7332000  80.6435350  44.0312070  79.2505270
  81.0651770  43.8651940  80.0936660  80.7686190  43.2212300  78.7560410
  78.8062770  40.0108620  92.0576250  78.2759230  39.5199570  91.4299590
  79.4750840  40.4392820  91.5234180  83.1562990  43.0549680  76.4982370
  83.6768650  42.3398700  76.1323520  83.8031390  43.6935550  76.7982880
  87.7040830  44.4778080  91.8217440  88.1181850  44.6323160  92.6707860
  86.7691830  44.6033300  91.9843220  88.1763000  41.8174240  93.8256590
  88.7583770  41.0626560  93.7377070  88.3524770  42.3481680  93.0488070
  79.2935070  36.9770990  92.1373540  79.1991940  36.3591740  91.4124410
  78.7132460  37.7037280  91.9103450  82.0596510  35.5344230  89.1700930
  81.6113810  35.5568490  88.3246480  81.4261710  35.1363250  89.7671230
  82.4656060  44.4298560  89.7913370  82.8844170  45.2731290  89.6189610
  81.5464690  44.5670600  89.5620150  84.8019960  42.1614740  91.1751210
  84.9216170  41.5655880  91.9146050  85.6613960  42.1984430  90.7552510
  87.1407860  42.7151930  89.7513720  86.6143080  43.2394550  89.1478860
  87.4839200  43.3479320  90.3823450  79.5394250  40.1045300  76.1963430
  79.3383310  39.2412660  76.5576770  79.3686300  40.0178660  75.2585030
  80.3163480  50.7351570  90.9071100  79.7784570  51.4597630  90.5879800
  80.5697440  50.2581910  90.1168440  81.5688730  38.7036090  92.4327030
  82.1588420  38.3951940  93.1204850  80.7508970  38.2315840  92.5886930
  86.3882160  38.3201900  92.6660050  85.6997680  37.6583440  92.6010040
  87.1088180  37.8740170  93.1108510  87.0182560  34.9153530  78.7250310
  87.2984850  34.0721430  79.0809730  86.2448290  35.1476640  79.2389060
  78.3377050  37.2045920  76.1841310  78.6402950  37.2113350  75.2760460
  79.0771640  36.8543780  76.6808970  83.1725690  51.9702780  91.1657750
  83.0984390  52.8737920  91.4730120  82.2704530  51.6514680  91.1379820
  81.5561980  36.1480540  77.1697510  81.2083980  35.4704530  76.5899960
  81.7574750  35.6870050  77.9840900  83.7211020  51.1361290  78.7884110
  84.6161810  51.4746260  78.8102870  83.7528650  50.4140700  78.1608390
  77.3607180  46.5088340  77.0171110  77.7982050  47.0518010  77.6728690
  77.8454910  45.6835290  77.0267450  74.5752980  49.2977370  84.4691370
  74.9055990  48.4298430  84.2370010  75.0043980  49.5035890  85.2996330
  79.1714900  47.6286380  82.1293340  78.8710440  47.5051350  83.0297250
  79.0652390  46.7694970  81.7209070  75.0643190  50.1647960  87.2073000
  74.6274180  50.3448760  88.0397150  75.6320870  50.9222580  87.0654720
  74.8967620  42.6768190  83.5661880  74.2416460  42.4079830  82.9221580
  75.7345570  42.5672670  83.1163860  89.3857010  46.3916940  89.5926470
  88.5716850  46.8214100  89.8552260  89.7931210  47.0035350  88.9795520
  87.8458060  37.4709480  77.7880370  88.2642940  37.2840460  76.9477030
  87.5394120  36.6188530  78.0983300  75.9343550  43.0620760  88.1065220
  76.3016590  42.9748160  88.9861240  75.3654370  42.2987310  88.0072080
  75.4859550  39.9729850  92.0123640  74.5915600  39.9396610  92.3517350
  76.0257100  40.1716640  92.7774890  74.1105700  39.8867120  79.5087210
  73.2069780  40.1497320  79.3338870  74.5946320  40.1578290  78.7287170
  76.6532910  38.9432660  77.4181590  77.3624610  38.5215880  76.9328870
  75.9372850  39.0107890  76.7864940  76.3007070  34.9971990  76.4584240
  77.0235200  35.5380930  76.7765460  76.5731590  34.7235410  75.5825780
  75.9899260  34.2478180  86.3606860  76.6375450  33.6975560  85.9202020
  76.4101100  34.5021330  87.1822670  75.7431260  34.4033850  89.1032180
  75.3946080  34.8597670  89.8690360  75.4118960  33.5090980  89.1854610
  81.0501660  49.1313040  88.8695090  80.8093020  49.3987600  87.9825610
  81.9904300  49.3018770  88.9245950  83.2556080  35.5945730  92.6251600
  83.1944970  36.1867560  93.3747010  84.1956460  35.4871690  92.4801860
  85.8930640  35.2515790  92.2643890  86.5071050  35.5695080  91.6024970
  86.4380200  34.7664380  92.8839750  76.4151900  33.9310050  92.3782950
  76.9634890  33.7498100  91.6149060  76.4807210  33.1404160  92.9139260
  77.1883660  50.5215700  90.3883150  76.5943980  50.3900400  91.1273190
  77.1807500  49.6853840  89.9225250  86.6338680  33.8147930  88.5913180
  85.7598520  34.1483040  88.3886110  86.5249430  33.3421110  89.4165050
  87.5410660  36.0218800  89.9754900  87.2124020  35.2070560  89.5956630
  88.4892960  35.9788610  89.8520590  76.8195890  47.8874080  89.3391190
  76.0929950  47.2679370  89.2717140  76.8805040  48.2814690  88.4689270
  80.4240990  50.1019080  86.1240600  80.9406010  49.4906440  85.5988860
  81.0738370  50.6047860  86.6151610  83.1636490  50.9927570  86.9509580
  83.4514300  50.7381870  86.0742590  83.6759710  50.4404930  87.5415150
  84.3813500  34.7317770  87.5306090  83.5985290  35.2063270  87.8102850
  84.0876430  33.8272600  87.4219270  88.9334570  35.4340870  85.5755180
  89.3742660  35.3785970  84.7276780  88.6642160  36.3498880  85.6465360
  75.1025890  51.2048470  82.5487950  74.9347930  50.5719150  83.2469840
  74.2360400  51.4107870  82.1982140  75.7253910  35.0365250  80.0519810
  76.4833270  35.1494130  79.4783840  75.2631080  35.8734450  80.0063240
  82.2667720  37.1504520  83.0422120  81.4542230  36.7761410  82.7018000
  82.7709360  36.3949600  83.3443310  86.7692700  33.8146970  84.2805190
  87.3722070  34.3867180  84.7553710  86.0285690  34.3786410  84.0579090
  76.7088590  49.8981700  79.9938090  76.1836210  50.2789730  79.2900050
  76.6333170  50.5232470  80.7147800  78.0979060  35.5629300  78.5921780
  78.6271820  34.7759100  78.4629730  78.7307380  36.2420490  78.8257310
  80.2916900  35.3004440  81.6467170  79.6619640  34.5991750  81.8137300
  79.7522040  36.0608570  81.4300330  79.3081560  51.8464080  78.8687340
  80.0400380  51.5623360  78.3211230  79.5675230  51.6077360  79.7586720
  78.4696350  47.9628810  78.8733670  77.8405230  48.4313910  79.4219500
  78.5844180  47.1178030  79.3079860  85.9246070  42.0134470  65.0234870
  85.8440120  41.0989080  64.7526580  85.5110490  42.5101540  64.3174580
  84.0564110  43.7913490  66.9044140  83.2806210  43.3113930  67.1942710
  84.7077040  43.1119140  66.7300300  78.0729940  44.1033300  67.7819900
  77.2414820  43.8482010  68.1816410  78.6810920  44.1744070  68.5177820
  88.0771540  48.1973680  65.6843270  87.6153070  47.4260920  66.0130440
  88.8897090  48.2239750  66.1895720  78.0531200  48.1373390  67.9777920
  78.3559240  47.2471130  67.7988140  78.7974790  48.6943610  67.7500170
  76.4821890  39.0635190  61.5662290  75.5938590  39.4051160  61.4642170
  76.7663080  38.8635510  60.6743120  74.4454900  41.6640840  67.4501990
  75.0171010  40.8963040  67.4505630  74.4456440  41.9629600  66.5408600
  84.3034850  50.4831690  65.3047260  83.6846290  50.9389190  64.7341700
  85.1586630  50.6383150  64.9036960  83.4973100  46.4670680  66.9114300
  83.4281380  45.5260620  66.7503430  84.2592960  46.5572090  67.4836870
  75.6879770  37.0725200  69.2370920  75.5082610  36.1750950  69.5173680
  75.2859850  37.6197070  69.9117870  84.5278270  39.2741060  67.1383230
  84.9043090  38.4012940  67.0256900  84.4297780  39.6099760  66.2473670
  78.6583280  37.6466690  62.6000670  78.7650030  38.5470420  62.9069430
  77.7475640  37.5984660  62.3095320  88.3102390  36.7691500  64.0711570
  89.1312010  36.2788070  64.1137050  88.3436470  37.3589160  64.8243410
  76.3066440  39.5685700  67.8453260  76.9876550  39.8324070  68.4640660
  75.9914490  38.7286570  68.1791270  80.4991010  40.6153060  66.9325850
  81.0069230  41.1134030  67.5730870  81.0304250  39.8388260  66.7565210
  78.7827110  35.2551620  71.1989270  78.7845550  35.7724010  70.3935170
  77.9531420  34.7781800  71.1759200  85.1698200  45.3670930  62.6979170
  84.5515470  45.8320380  62.1341890  85.6821450  46.0598410  63.1148680
  80.0329960  44.8946800  69.3762770  79.6999340  45.5215720  70.0183840
  80.2096640  45.4208680  68.5964440  88.5463870  38.7091880  66.8439110
  87.8419440  38.9976770  67.4242220  88.9076030  39.5191990  66.4838670
  78.4642440  36.9661580  69.2059720  78.8059250  37.8103630  68.9113590
  77.5258250  37.1145320  69.3225060  79.2449060  46.8627600  71.1911950
  79.8623060  47.5378680  70.9096400  78.3842180  47.2715580  71.0999450
  74.5381400  46.0527460  60.0718800  74.1609380  46.5414560  59.3403700
  74.7954470  46.7252740  60.7025330  82.1470330  34.4543850  65.5304310
  82.4545310  33.8990740  64.8139810  81.2171030  34.5888310  65.3477300
  87.6985390  50.1711140  67.8211770  87.7112550  49.7673430  66.9534030
  87.1460610  50.9458430  67.7173200  88.9930810  46.8927360  62.9101940
  88.8827140  45.9501690  63.0351360  88.9899060  47.2543000  63.7964700
  87.0970830  45.0740980  69.1494380  87.5139620  44.8601090  68.3147840
  87.8210650  45.3313770  69.7203000  84.5351090  42.5192680  62.2664430
  83.6080370  42.4530060  62.4952900  84.6875910  43.4572810  62.1519670
  84.5220170  38.7909680  59.2631590  83.5823840  38.9523640  59.3484050
  84.8403430  39.5095360  58.7167580  88.5648380  44.0812980  62.7699680
  87.9460800  43.7432530  62.1225980  88.5472830  43.4372740  63.4778870
  88.0074940  40.2597520  70.1865490  87.5946120  41.0851230  70.4405480
  87.2750890  39.6742560  69.9941850  80.1407730  43.0457420  65.0484160
  79.7364730  42.3334670  64.5530060  80.2270850  42.7010660  65.9372200
  80.6089430  46.7324980  67.2123370  80.3117720  46.1270450  66.5331150
  81.5589250  46.7702290  67.1012730  78.8536350  39.8200630  68.8283200
  79.4050940  39.9295970  68.0536450  79.3679860  40.1938230  69.5438430
  88.6975040  50.3056850  70.8746470  88.2205600  51.1129040  70.6819080
  88.0136830  49.6535180  71.0272680  79.7007860  46.4706670  73.8631170
  78.8036390  46.6946640  74.1104570  79.7260730  46.5941610  72.9142570
  86.7413080  43.3199790  59.7772430  87.1806360  42.4822220  59.6310250
  87.4541500  43.9529190  59.8636570  78.5279080  43.3419990  72.4388540
  78.3886850  44.2142790  72.8075940  77.6460440  42.9992800  72.2936480
  84.8508460  48.2595860  63.7453670  85.2904370  49.0020190  63.3309060
  84.7895350  48.5022430  64.6692630  80.3259430  49.2841690  74.6473690
  80.2974860  49.6884640  73.7802120  80.1624400  48.3552050  74.4845290
  76.8412360  41.9402400  62.5490810  76.7209960  42.6664490  61.9372080
  76.5313250  41.1705310  62.0718720  74.4797730  45.1117540  68.3559450
  74.5578150  45.2466310  67.4115170  75.0939410  44.4033430  68.5487570
  75.7245360  46.8117730  64.7665630  75.3173440  46.9532320  63.9119230
  76.6158370  46.5277890  64.5636840  85.5424240  50.9609640  71.6732680
  86.0568910  50.8717650  72.4755110  84.6993320  51.3069340  71.9660590
  87.5178640  51.2464980  61.1016680  87.3579780  50.9567920  61.9998510
  87.3525350  50.4705110  60.5661910  79.9967020  51.0263510  62.8788300
  79.8209500  50.1099050  62.6656100  79.1422760  51.3850800  63.1186100
  87.2204770  48.7552540  59.6614680  86.5269930  48.7529830  59.0016960
  87.9627630  48.3311860  59.2308850  86.7854700  50.3815250  63.7363170
  87.2411650  49.6004630  64.0501790  87.1247220  51.0922070  64.2804350
  74.5357250  46.1531710  70.8953910  74.6988290  45.6837070  70.0773280
  75.0009700  45.6455270  71.5602750  79.3076020  35.2837470  65.9314480
  78.8644170  36.0647010  65.5999000  79.8661010  35.6067360  66.6385420
  83.5945830  38.1505990  71.5349800  83.1325200  38.3589010  72.3469740
  83.1923940  37.3365340  71.2320470  88.5950340  39.3714940  72.6646460
  87.7443930  39.0720690  72.9855530  88.4352130  39.6156950  71.7530280
  85.6900050  40.8716690  74.7645250  86.0153460  40.0380440  74.4247480
  86.4780380  41.3945210  74.9123580  82.4234840  34.9048170  60.8120310
  81.7989020  34.9008040  61.5373620  82.3364960  34.0379130  60.4156280
  81.3451920  35.8284800  67.7904080  81.6424250  36.7347630  67.7096100
  81.8937480  35.3403580  67.1763650  79.0990240  40.4071040  63.6595730
  78.8731160  40.1908210  64.5642350  78.3182770  40.8399500  63.3141700
  86.3288000  40.4134410  62.2586380  85.7296890  41.1370210  62.0750000
  86.8767610  40.3511190  61.4762830  81.5389450  41.3056620  74.3256000
  81.4433050  40.3651350  74.1756400  82.3821430  41.5271690  73.9304070
  84.9352870  39.0497950  64.2889660  85.3282440  39.3670150  63.4758350
  85.2969720  38.1709830  64.4034180  76.6699990  37.7170290  72.4789780
  76.2763380  38.5645500  72.6862560  75.9818390  37.0796660  72.6698420
  83.2445040  37.8005260  75.5486520  82.5543360  37.6077460  76.1832610
  83.9877340  38.0839900  76.0810820  73.9717040  35.6398750  66.5119860
  73.6830090  36.2101610  67.2244840  74.7162800  35.1603200  66.8751090
  74.1587270  39.5818870  57.7222580  74.0761940  40.5249630  57.8637570
  73.8070330  39.4393780  56.8434930  85.5208010  41.6403700  68.3840440
  84.7889130  42.1490510  68.7330540  85.1232350  40.8233680  68.0829220
  81.9585400  38.3157900  66.7892930  81.9621460  37.8747850  65.9397470
  82.8536520  38.6375230  66.8964750  77.8087780  38.1984390  65.7487140
  77.4687830  38.6759620  66.5054190  77.0465100  37.7449510  65.3888240
  82.0205550  39.3169980  59.7799690  82.1418370  39.2756460  60.7285510
  81.6354060  40.1794130  59.6246420  85.9833920  37.0937380  67.7963380
  86.0006660  37.5446030  68.6405230  85.7349500  36.1943020  68.0096820
  81.0327050  41.6271120  59.1782990  80.4643950  41.1789370  58.5518900
  81.7416050  41.9863900  58.6448140  89.4104670  34.5069560  73.6349760
  89.7350440  33.7759220  74.1607740  89.4461180  34.1883200  72.7330750
  76.1096230  45.5283140  73.0549720  75.7251020  44.8876810  73.6532680
  76.4208420  46.2319260  73.6244450  82.2593370  42.3759680  68.5358340
  82.6263500  41.9018250  69.2819680  82.0698430  43.2501250  68.8766680
  75.1233860  37.1203370  64.6651810  74.8380780  36.7559040  65.5030430
  75.0612720  36.3883830  64.0514950  80.0492740  41.4168320  70.8542550
  79.7449810  42.2960300  71.0792910  81.0039200  41.4768110  70.8899990
  78.5774530  45.6229310  61.4509400  77.8036790  45.0826930  61.2908120
  79.3069160  45.1035920  61.1127160  84.7972450  36.0132630  61.3865180
  83.9837060  35.5145800  61.3110490  84.6034400  36.8530880  60.9701530
  84.7181310  44.6903730  73.1304790  84.6518620  43.7699400  72.8762380
  84.0886450  44.7879170  73.8449430  87.5120840  40.3852280  59.6827340
  88.4000460  40.6969510  59.5078680  87.4825930  39.5124530  59.2907920
  78.6211930  45.2909690  65.0888210  79.1390600  44.4877950  65.0345100
  78.1695950  45.2288830  65.9305040  83.5081430  46.5575970  60.3615510
  83.8497130  47.3018200  59.8658830  82.6794140  46.8707090  60.7240340
  76.1056470  42.2571060  72.0013910  75.7471410  42.9224910  72.5887250
  75.8111030  41.4254610  72.3726530  79.3069590  42.7155300  74.8853460
  79.0069730  42.8612480  73.9881280  80.0780830  42.1560590  74.7926850
  84.6498040  47.5124300  72.8808590  84.6642580  46.5805260  72.6627500
  83.9423140  47.5984060  73.5198360  86.3908840  45.8791810  65.7261020
  86.7432660  45.2819940  65.0662390  85.5071170  45.5536040  65.8969270
  82.4772120  46.6389500  63.1331430  83.1643250  47.1858710  63.5139020
  81.6904540  47.1830230  63.1681040  74.6164520  42.2562320  58.6248510
  75.4859370  42.5387120  58.9084430  74.1254840  43.0698190  58.5097320
  81.7799330  43.6435530  62.7456790  82.2362110  44.4540780  62.9716980
  81.4287540  43.3258670  63.5775280  84.0831940  49.1541870  69.9749090
  84.7274160  49.3601250  70.6522510  84.4461380  48.3930270  69.5219940
  77.6811110  33.9873180  63.2179310  77.5525740  33.9791080  64.1664230
  76.8573130  34.3256270  62.8670320  85.3564020  47.1574220  68.6926540
  85.9986250  46.4567380  68.8058710  85.8813370  47.9372660  68.5123430
  89.2019740  47.4422840  58.4165680  88.9757320  46.7253280  59.0090320
  88.8115940  47.1935280  57.5787430  87.1301640  47.9569120  71.8962600
  87.4657880  48.5435810  72.5740520  86.2101980  47.8261830  72.1260390
  74.9835770  51.4689700  59.1910140  75.3433410  52.0679040  58.5367410
  74.8428110  52.0149590  59.9645170  74.6805040  35.7464300  72.6786010
  73.9663560  35.9461220  73.2838620  75.1000080  34.9703870  73.0500810
  88.7835990  45.3594780  60.0779840  88.4957690  45.8207470  60.8657720
  89.5788160  44.8992550  60.3464060  74.9677630  49.7344560  73.6652540
  75.0768750  48.7939300  73.5247930  74.3158190  49.9999310  73.0166270
  82.9590220  48.0060450  75.0650660  82.6387090  47.2869690  75.6096350
  82.2848580  48.6815520  75.1386720  81.0004390  48.8520900  60.0083810
  80.9914490  49.5850590  59.3928320  80.0802750  48.6052480  60.1010770
  76.6011030  44.0735790  60.7530570  75.9938980  44.8134690  60.7625870
  77.0760380  44.1635150  59.9268770  86.1743820  38.2386610  70.4287460
  86.5424640  37.4181820  70.7567030  85.3142020  38.2988500  70.8443110
  89.5405850  37.1943550  61.2375020  88.9119010  37.2989220  60.5233250
  89.0457770  37.4140330  62.0268900  83.9863990  48.9149140  58.6709000
  84.0875970  48.7113130  57.7410980  83.0865730  48.6607420  58.8756780
  81.5089880  39.4729500  62.6532900  80.8006030  39.9415840  63.0946510
  81.7934360  38.8151510  63.2878090  83.1345810  40.8926200  70.6525430
  83.6331060  41.3672020  71.3177280  83.2768760  39.9689720  70.8595460
  85.5405310  36.1980160  64.0928690  85.4173090  36.2166290  63.1438200
  86.4889870  36.2459100  64.2127090  82.6282100  51.4335460  63.3656670
  82.8823600  51.3956850  62.4436040  81.6794580  51.3068790  63.3584920
  79.7124900  37.7814580  60.0283610  80.5615430  38.2184730  59.9623800
  79.3456170  38.0934840  60.8555670  88.6334680  42.3527340  64.9415180
  87.6924820  42.3677570  65.1162870  88.9478750  41.5663300  65.3875480
  78.6116320  44.0346940  58.5019140  79.3779590  43.9228300  59.0644570
  78.6891010  43.3384910  57.8495910  77.3063080  41.4672010  59.1852030
  77.3866670  40.5199520  59.2969430  78.1982830  41.7978890  59.2912690
  78.1077790  51.6167400  66.2886570  78.8440270  51.0682860  66.5595140
  78.4918710  52.4823410  66.1492560  74.9923270  47.6840970  62.1628080
  74.0663050  47.9262110  62.1533490  75.4579700  48.5115230  62.0412830
  77.1136070  50.8013470  75.4772150  77.9148800  51.1225520  75.8907550
  76.5987890  50.4409050  76.1992060  81.2180100  50.7897710  58.1112140
  82.0108710  51.0786540  57.6593930  80.6984450  50.3589880  57.4324620
  85.9500700  46.9093340  75.4247560  85.3438860  46.9324940  74.6843310
  85.6454810  46.1776380  75.9614810  87.3801070  50.6373630  74.0356970
  88.3322820  50.5531650  73.9857210  87.2329290  51.3015340  74.7090760
  74.8333880  43.2886930  74.4208200  75.3372900  42.7094210  74.9924430
  74.0941300  43.5727160  74.9584570  81.7357500  46.0101120  57.9754490
  81.6308140  45.3953470  58.7015870  81.5681720  45.4867010  57.1917500
  81.8871820  44.6957920  73.9543720  81.1217490  45.2642920  73.8698390
  82.0687780  44.4034130  73.0611950  84.9760230  45.0721150  58.5796480
  84.4270330  45.5190450  59.2239220  85.5979490  44.5670400  59.1034150
  89.0295170  46.4263250  74.5118740  89.7704640  46.7639010  74.0086200
  88.2667850  46.5955310  73.9588510  76.8656960  41.4316520  75.3158270
  76.9062300  41.1330390  76.2243500  77.7202460  41.8324130  75.1565790
  80.6435350  44.0312070  60.4761780  81.0651770  43.8651940  61.3193170
  80.7686190  43.2212300  59.9816920  78.8062770  40.0108620  73.2832760
  78.2759230  39.5199570  72.6556100  79.4750840  40.4392820  72.7490690
  83.1562990  43.0549680  57.7238880  83.6768650  42.3398700  57.3580030
  83.8031390  43.6935550  58.0239390  87.7040830  44.4778080  73.0473950
  88.1181850  44.6323160  73.8964370  86.7691830  44.6033300  73.2099730
  88.1763000  41.8174240  75.0513100  88.7583770  41.0626560  74.9633580
  88.3524770  42.3481680  74.2744580  79.2935070  36.9770990  73.3630050
  79.1991940  36.3591740  72.6380920  78.7132460  37.7037280  73.1359960
  82.0596510  35.5344230  70.3957440  81.6113810  35.5568490  69.5502990
  81.4261710  35.1363250  70.9927740  82.4656060  44.4298560  71.0169880
  82.8844170  45.2731290  70.8446120  81.5464690  44.5670600  70.7876660
  84.8019960  42.1614740  72.4007720  84.9216170  41.5655880  73.1402560
  85.6613960  42.1984430  71.9809020  87.1407860  42.7151930  70.9770230
  86.6143080  43.2394550  70.3735370  87.4839200  43.3479320  71.6079960
  79.5394250  40.1045300  57.4219940  79.3383310  39.2412660  57.7833280
  79.3686300  40.0178660  56.4841540  80.3163480  50.7351570  72.1327610
  79.7784570  51.4597630  71.8136310  80.5697440  50.2581910  71.3424950
  81.5688730  38.7036090  73.6583540  82.1588420  38.3951940  74.3461360
  80.7508970  38.2315840  73.8143440  86.3882160  38.3201900  73.8916560
  85.6997680  37.6583440  73.8266550  87.1088180  37.8740170  74.3365020
  87.0182560  34.9153530  59.9506820  87.2984850  34.0721430  60.3066240
  86.2448290  35.1476640  60.4645570  78.3377050  37.2045920  57.4097820
  78.6402950  37.2113350  56.5016970  79.0771640  36.8543780  57.9065480
  83.1725690  51.9702780  72.3914260  83.0984390  52.8737920  72.6986630
  82.2704530  51.6514680  72.3636330  81.5561980  36.1480540  58.3954020
  81.2083980  35.4704530  57.8156470  81.7574750  35.6870050  59.2097410
  83.7211020  51.1361290  60.0140620  84.6161810  51.4746260  60.0359380
  83.7528650  50.4140700  59.3864900  77.3607180  46.5088340  58.2427620
  77.7982050  47.0518010  58.8985200  77.8454910  45.6835290  58.2523960
  74.5752980  49.2977370  65.6947880  74.9055990  48.4298430  65.4626520
  75.0043980  49.5035890  66.5252840  79.1714900  47.6286380  63.3549850
  78.8710440  47.5051350  64.2553760  79.0652390  46.7694970  62.9465580
  75.0643190  50.1647960  68.4329510  74.6274180  50.3448760  69.2653660
  75.6320870  50.9222580  68.2911230  74.8967620  42.6768190  64.7918390
  74.2416460  42.4079830  64.1478090  75.7345570  42.5672670  64.3420370
  89.3857010  46.3916940  70.8182980  88.5716850  46.8214100  71.0808770
  89.7931210  47.0035350  70.2052030  87.8458060  37.4709480  59.0136880
  88.2642940  37.2840460  58.1733540  87.5394120  36.6188530  59.3239810
  75.9343550  43.0620760  69.3321730  76.3016590  42.9748160  70.2117750
  75.3654370  42.2987310  69.2328590  75.4859550  39.9729850  73.2380150
  74.5915600  39.9396610  73.5773860  76.0257100  40.1716640  74.0031400
  74.1105700  39.8867120  60.7343720  73.2069780  40.1497320  60.5595380
  74.5946320  40.1578290  59.9543680  76.6532910  38.9432660  58.6438100
  77.3624610  38.5215880  58.1585380  75.9372850  39.0107890  58.0121450
  76.3007070  34.9971990  57.6840750  77.0235200  35.5380930  58.0021970
  76.5731590  34.7235410  56.8082290  75.9899260  34.2478180  67.5863370
  76.6375450  33.6975560  67.1458530  76.4101100  34.5021330  68.4079180
  75.7431260  34.4033850  70.3288690  75.3946080  34.8597670  71.0946870
  75.4118960  33.5090980  70.4111120  77.3495630  47.5753450  74.4941880
  77.3065260  47.2046360  75.3756340  77.4806640  48.5131020  74.6343700
  81.0501660  49.1313040  70.0951600  80.8093020  49.3987600  69.2082120
  81.9904300  49.3018770  70.1502460  83.2556080  35.5945730  73.8508110
  83.1944970  36.1867560  74.6003520  84.1956460  35.4871690  73.7058370
  85.8930640  35.2515790  73.4900400  86.5071050  35.5695080  72.8281480
  86.4380200  34.7664380  74.1096260  76.4151900  33.9310050  73.6039460
  76.9634890  33.7498100  72.8405570  76.4807210  33.1404160  74.1395770
  77.1883660  50.5215700  71.6139660  76.5943980  50.3900400  72.3529700
  77.1807500  49.6853840  71.1481760  86.6338680  33.8147930  69.8169690
  85.7598520  34.1483040  69.6142620  86.5249430  33.3421110  70.6421560
  87.5410660  36.0218800  71.2011410  87.2124020  35.2070560  70.8213140
  88.4892960  35.9788610  71.0777100  76.8195890  47.8874080  70.5647700
  76.0929950  47.2679370  70.4973650  76.8805040  48.2814690  69.6945780
  80.4240990  50.1019080  67.3497110  80.9406010  49.4906440  66.8245370
  81.0738370  50.6047860  67.8408120  83.1636490  50.9927570  68.1766090
  83.4514300  50.7381870  67.2999100  83.6759710  50.4404930  68.7671660
  84.3813500  34.7317770  68.7562600  83.5985290  35.2063270  69.0359360
  84.0876430  33.8272600  68.6475780  88.9334570  35.4340870  66.8011690
  89.3742660  35.3785970  65.9533290  88.6642160  36.3498880  66.8721870
  75.1025890  51.2048470  63.7744460  74.9347930  50.5719150  64.4726350
  74.2360400  51.4107870  63.4238650  75.7253910  35.0365250  61.2776320
  76.4833270  35.1494130  60.7040350  75.2631080  35.8734450  61.2319750
  82.2667720  37.1504520  64.2678630  81.4542230  36.7761410  63.9274510
  82.7709360  36.3949600  64.5699820  86.7692700  33.8146970  65.5061700
  87.3722070  34.3867180  65.9810220  86.0285690  34.3786410  65.2835600
  76.7088590  49.8981700  61.2194600  76.1836210  50.2789730  60.5156560
  76.6333170  50.5232470  61.9404310  78.0979060  35.5629300  59.8178290
  78.6271820  34.7759100  59.6886240  78.7307380  36.2420490  60.0513820
  80.2916900  35.3004440  62.8723680  79.6619640  34.5991750  63.0393810
  79.7522040  36.0608570  62.6556840  83.2308850  51.9143670  75.5434290
  84.1576160  51.6787940  75.5870250  83.2159280  52.7415670  75.0620320
  80.4172460  34.5788420  75.3076170  80.1356730  35.0822020  74.5436990
  80.7992160  33.7810170  74.9418300  79.3081560  51.8464080  60.0943850
  80.0400380  51.5623360  59.5467740  79.5675230  51.6077360  60.9843230
  78.4696350  47.9628810  60.0990180  77.8405230  48.4313910  60.6476010
  78.5844180  47.1178030  60.5336370  87.0187920  33.9942000  75.8856640
  86.9053370  34.3136610  76.7808160  87.8357660  34.3954510  75.5893920
  85.9246070  42.0134470  46.2491380  85.8440120  41.0989080  45.9783090
  85.5110490  42.5101540  45.5431090  84.0564110  43.7913490  48.1300650
  83.2806210  43.3113930  48.4199220  84.7077040  43.1119140  47.9556810
  78.0729940  44.1033300  49.0076410  77.2414820  43.8482010  49.4072920
  78.6810920  44.1744070  49.7434330  88.0771540  48.1973680  46.9099780
  87.6153070  47.4260920  47.2386950  88.8897090  48.2239750  47.4152230
  78.0531200  48.1373390  49.2034430  78.3559240  47.2471130  49.0244650
  78.7974790  48.6943610  48.9756680  76.4821890  39.0635190  42.7918800
  75.5938590  39.4051160  42.6898680  76.7663080  38.8635510  41.8999630
  74.4454900  41.6640840  48.6758500  75.0171010  40.8963040  48.6762140
  74.4456440  41.9629600  47.7665110  84.3034850  50.4831690  46.5303770
  83.6846290  50.9389190  45.9598210  85.1586630  50.6383150  46.1293470
  83.4973100  46.4670680  48.1370810  83.4281380  45.5260620  47.9759940
  84.2592960  46.5572090  48.7093380  75.6879770  37.0725200  50.4627430
  75.5082610  36.1750950  50.7430190  75.2859850  37.6197070  51.1374380
  84.5278270  39.2741060  48.3639740  84.9043090  38.4012940  48.2513410
  84.4297780  39.6099760  47.4730180  78.6583280  37.6466690  43.8257180
  78.7650030  38.5470420  44.1325940  77.7475640  37.5984660  43.5351830
  88.3102390  36.7691500  45.2968080  89.1312010  36.2788070  45.3393560
  88.3436470  37.3589160  46.0499920  76.3066440  39.5685700  49.0709770
  76.9876550  39.8324070  49.6897170  75.9914490  38.7286570  49.4047780
  80.4991010  40.6153060  48.1582360  81.0069230  41.1134030  48.7987380
  81.0304250  39.8388260  47.9821720  78.7827110  35.2551620  52.4245780
  78.7845550  35.7724010  51.6191680  77.9531420  34.7781800  52.4015710
  85.1698200  45.3670930  43.9235680  84.5515470  45.8320380  43.3598400
  85.6821450  46.0598410  44.3405190  80.0329960  44.8946800  50.6019280
  79.6999340  45.5215720  51.2440350  80.2096640  45.4208680  49.8220950
  88.5463870  38.7091880  48.0695620  87.8419440  38.9976770  48.6498730
  88.9076030  39.5191990  47.7095180  78.4642440  36.9661580  50.4316230
  78.8059250  37.8103630  50.1370100  77.5258250  37.1145320  50.5481570
  79.2449060  46.8627600  52.4168460  79.8623060  47.5378680  52.1352910
  78.3842180  47.2715580  52.3255960  82.1470330  34.4543850  46.7560820
  82.4545310  33.8990740  46.0396320  81.2171030  34.5888310  46.5733810
  87.6985390  50.1711140  49.0468280  87.7112550  49.7673430  48.1790540
  87.1460610  50.9458430  48.9429710  88.9930810  46.8927360  44.1358450
  88.8827140  45.9501690  44.2607870  88.9899060  47.2543000  45.0221210
  87.0970830  45.0740980  50.3750890  87.5139620  44.8601090  49.5404350
  87.8210650  45.3313770  50.9459510  84.5351090  42.5192680  43.4920940
  83.6080370  42.4530060  43.7209410  84.6875910  43.4572810  43.3776180
  84.5220170  38.7909680  40.4888100  83.5823840  38.9523640  40.5740560
  84.8403430  39.5095360  39.9424090  88.5648380  44.0812980  43.9956190
  87.9460800  43.7432530  43.3482490  88.5472830  43.4372740  44.7035380
  88.0074940  40.2597520  51.4122000  87.5946120  41.0851230  51.6661990
  87.2750890  39.6742560  51.2198360  80.1407730  43.0457420  46.2740670
  79.7364730  42.3334670  45.7786570  80.2270850  42.7010660  47.1628710
  80.6089430  46.7324980  48.4379880  80.3117720  46.1270450  47.7587660
  81.5589250  46.7702290  48.3269240  78.8536350  39.8200630  50.0539710
  79.4050940  39.9295970  49.2792960  79.3679860  40.1938230  50.7694940
  88.6975040  50.3056850  52.1002980  88.2205600  51.1129040  51.9075590
  88.0136830  49.6535180  52.2529190  79.7007860  46.4706670  55.0887680
  78.8036390  46.6946640  55.3361080  79.7260730  46.5941610  54.1399080
  86.7413080  43.3199790  41.0028940  87.1806360  42.4822220  40.8566760
  87.4541500  43.9529190  41.0893080  78.5279080  43.3419990  53.6645050
  78.3886850  44.2142790  54.0332450  77.6460440  42.9992800  53.5192990
  84.8508460  48.2595860  44.9710180  85.2904370  49.0020190  44.5565570
  84.7895350  48.5022430  45.8949140  80.3259430  49.2841690  55.8730200
  80.2974860  49.6884640  55.0058630  80.1624400  48.3552050  55.7101800
  74.4797730  45.1117540  49.5815960  74.5578150  45.2466310  48.6371680
  75.0939410  44.4033430  49.7744080  75.7245360  46.8117730  45.9922140
  75.3173440  46.9532320  45.1375740  76.6158370  46.5277890  45.7893350
  85.5424240  50.9609640  52.8989190  86.0568910  50.8717650  53.7011620
  84.6993320  51.3069340  53.1917100  87.5178640  51.2464980  42.3273190
  87.3579780  50.9567920  43.2255020  87.3525350  50.4705110  41.7918420
  79.9967020  51.0263510  44.1044810  79.8209500  50.1099050  43.8912610
  79.1422760  51.3850800  44.3442610  87.2204770  48.7552540  40.8871190
  86.5269930  48.7529830  40.2273470  87.9627630  48.3311860  40.4565360
  86.7854700  50.3815250  44.9619680  87.2411650  49.6004630  45.2758300
  87.1247220  51.0922070  45.5060860  74.5357250  46.1531710  52.1210420
  74.6988290  45.6837070  51.3029790  75.0009700  45.6455270  52.7859260
  79.3076020  35.2837470  47.1570990  78.8644170  36.0647010  46.8255510
  79.8661010  35.6067360  47.8641930  83.5945830  38.1505990  52.7606310
  83.1325200  38.3589010  53.5726250  83.1923940  37.3365340  52.4576980
  88.5950340  39.3714940  53.8902970  87.7443930  39.0720690  54.2112040
  88.4352130  39.6156950  52.9786790  85.6900050  40.8716690  55.9901760
  86.0153460  40.0380440  55.6503990  86.4780380  41.3945210  56.1380090
  82.4234840  34.9048170  42.0376820  81.7989020  34.9008040  42.7630130
  82.3364960  34.0379130  41.6412790  81.3451920  35.8284800  49.0160590
  81.6424250  36.7347630  48.9352610  81.8937480  35.3403580  48.4020160
  79.0990240  40.4071040  44.8852240  78.8731160  40.1908210  45.7898860
  78.3182770  40.8399500  44.5398210  86.3288000  40.4134410  43.4842890
  85.7296890  41.1370210  43.3006510  86.8767610  40.3511190  42.7019340
  81.5389450  41.3056620  55.5512510  81.4433050  40.3651350  55.4012910
  82.3821430  41.5271690  55.1560580  84.9352870  39.0497950  45.5146170
  85.3282440  39.3670150  44.7014860  85.2969720  38.1709830  45.6290690
  76.6699990  37.7170290  53.7046290  76.2763380  38.5645500  53.9119070
  75.9818390  37.0796660  53.8954930  83.2445040  37.8005260  56.7743030
  82.5543360  37.6077460  57.4089120  83.9877340  38.0839900  57.3067330
  73.9717040  35.6398750  47.7376370  73.6830090  36.2101610  48.4501350
  74.7162800  35.1603200  48.1007600  85.5208010  41.6403700  49.6096950
  84.7889130  42.1490510  49.9587050  85.1232350  40.8233680  49.3085730
  81.9585400  38.3157900  48.0149440  81.9621460  37.8747850  47.1653980
  82.8536520  38.6375230  48.1221260  77.8087780  38.1984390  46.9743650
  77.4687830  38.6759620  47.7310700  77.0465100  37.7449510  46.6144750
  82.0205550  39.3169980  41.0056200  82.1418370  39.2756460  41.9542020
  81.6354060  40.1794130  40.8502930  85.9833920  37.0937380  49.0219890
  86.0006660  37.5446030  49.8661740  85.7349500  36.1943020  49.2353330
  81.0327050  41.6271120  40.4039500  80.4643950  41.1789370  39.7775410
  81.7416050  41.9863900  39.8704650  89.4104670  34.5069560  54.8606270
  89.7350440  33.7759220  55.3864250  89.4461180  34.1883200  53.9587260
  76.1096230  45.5283140  54.2806230  75.7251020  44.8876810  54.8789190
  76.4208420  46.2319260  54.8500960  82.2593370  42.3759680  49.7614850
  82.6263500  41.9018250  50.5076190  82.0698430  43.2501250  50.1023190
  75.1233860  37.1203370  45.8908320  74.8380780  36.7559040  46.7286940
  75.0612720  36.3883830  45.2771460  80.0492740  41.4168320  52.0799060
  79.7449810  42.2960300  52.3049420  81.0039200  41.4768110  52.1156500
  84.7972450  36.0132630  42.6121690  83.9837060  35.5145800  42.5367000
  84.6034400  36.8530880  42.1958040  84.7181310  44.6903730  54.3561300
  84.6518620  43.7699400  54.1018890  84.0886450  44.7879170  55.0705940
  87.5120840  40.3852280  40.9083850  88.4000460  40.6969510  40.7335190
  87.4825930  39.5124530  40.5164430  78.6211930  45.2909690  46.3144720
  79.1390600  44.4877950  46.2601610  78.1695950  45.2288830  47.1561550
  83.5081430  46.5575970  41.5872020  83.8497130  47.3018200  41.0915340
  82.6794140  46.8707090  41.9496850  76.1056470  42.2571060  53.2270420
  75.7471410  42.9224910  53.8143760  75.8111030  41.4254610  53.5983040
  79.3069590  42.7155300  56.1109970  79.0069730  42.8612480  55.2137790
  80.0780830  42.1560590  56.0183360  84.6498040  47.5124300  54.1065100
  84.6642580  46.5805260  53.8884010  83.9423140  47.5984060  54.7454870
  86.3908840  45.8791810  46.9517530  86.7432660  45.2819940  46.2918900
  85.5071170  45.5536040  47.1225780  82.4772120  46.6389500  44.3587940
  83.1643250  47.1858710  44.7395530  81.6904540  47.1830230  44.3937550
  81.7799330  43.6435530  43.9713300  82.2362110  44.4540780  44.1973490
  81.4287540  43.3258670  44.8031790  84.0831940  49.1541870  51.2005600
  84.7274160  49.3601250  51.8779020  84.4461380  48.3930270  50.7476450
  77.6811110  33.9873180  44.4435820  77.5525740  33.9791080  45.3920740
  76.8573130  34.3256270  44.0926830  85.3564020  47.1574220  49.9183050
  85.9986250  46.4567380  50.0315220  85.8813370  47.9372660  49.7379940
  89.2019740  47.4422840  39.6422190  88.9757320  46.7253280  40.2346830
  88.8115940  47.1935280  38.8043940  87.1301640  47.9569120  53.1219110
  87.4657880  48.5435810  53.7997030  86.2101980  47.8261830  53.3516900
  74.6805040  35.7464300  53.9042520  73.9663560  35.9461220  54.5095130
  75.1000080  34.9703870  54.2757320  88.7835990  45.3594780  41.3036350
  88.4957690  45.8207470  42.0914230  89.5788160  44.8992550  41.5720570
  74.9677630  49.7344560  54.8909050  75.0768750  48.7939300  54.7504440
  74.3158190  49.9999310  54.2422780  82.9590220  48.0060450  56.2907170
  82.6387090  47.2869690  56.8352860  82.2848580  48.6815520  56.3643230
  81.0004390  48.8520900  41.2340320  80.9914490  49.5850590  40.6184830
  80.0802750  48.6052480  41.3267280  86.1743820  38.2386610  51.6543970
  86.5424640  37.4181820  51.9823540  85.3142020  38.2988500  52.0699620
  89.5405850  37.1943550  42.4631530  88.9119010  37.2989220  41.7489760
  89.0457770  37.4140330  43.2525410  83.9863990  48.9149140  39.8965510
  84.0875970  48.7113130  38.9667490  83.0865730  48.6607420  40.1013290
  81.5089880  39.4729500  43.8789410  80.8006030  39.9415840  44.3203020
  81.7934360  38.8151510  44.5134600  83.1345810  40.8926200  51.8781940
  83.6331060  41.3672020  52.5433790  83.2768760  39.9689720  52.0851970
  85.5405310  36.1980160  45.3185200  85.4173090  36.2166290  44.3694710
  86.4889870  36.2459100  45.4383600  82.6282100  51.4335460  44.5913180
  82.8823600  51.3956850  43.6692550  81.6794580  51.3068790  44.5841430
  79.7124900  37.7814580  41.2540120  80.5615430  38.2184730  41.1880310
  79.3456170  38.0934840  42.0812180  88.6334680  42.3527340  46.1671690
  87.6924820  42.3677570  46.3419380  88.9478750  41.5663300  46.6131990
  78.1077790  51.6167400  47.5143080  78.8440270  51.0682860  47.7851650
  78.4918710  52.4823410  47.3749070  77.1136070  50.8013470  56.7028660
  77.9148800  51.1225520  57.1164060  76.5987890  50.4409050  57.4248570
  81.2180100  50.7897710  39.3368650  82.0108710  51.0786540  38.8850440
  80.6984450  50.3589880  38.6581130  85.9500700  46.9093340  56.6504070
  85.3438860  46.9324940  55.9099820  85.6454810  46.1776380  57.1871320
  87.3801070  50.6373630  55.2613480  88.3322820  50.5531650  55.2113720
  87.2329290  51.3015340  55.9347270  74.8333880  43.2886930  55.6464710
  75.3372900  42.7094210  56.2180940  74.0941300  43.5727160  56.1841080
  81.7357500  46.0101120  39.2011000  81.6308140  45.3953470  39.9272380
  81.5681720  45.4867010  38.4174010  81.8871820  44.6957920  55.1800230
  81.1217490  45.2642920  55.0954900  82.0687780  44.4034130  54.2868460
  84.9760230  45.0721150  39.8052990  84.4270330  45.5190450  40.4495730
  85.5979490  44.5670400  40.3290660  89.0295170  46.4263250  55.7375250
  89.7704640  46.7639010  55.2342710  88.2667850  46.5955310  55.1845020
  76.8656960  41.4316520  56.5414780  76.9062300  41.1330390  57.4500010
  77.7202460  41.8324130  56.3822300  78.8062770  40.0108620  54.5089270
  78.2759230  39.5199570  53.8812610  79.4750840  40.4392820  53.9747200
  83.1562990  43.0549680  38.9495390  83.6768650  42.3398700  38.5836540
  83.8031390  43.6935550  39.2495900  87.7040830  44.4778080  54.2730460
  88.1181850  44.6323160  55.1220880  86.7691830  44.6033300  54.4356240
  88.1763000  41.8174240  56.2769610  88.7583770  41.0626560  56.1890090
  88.3524770  42.3481680  55.5001090  79.2935070  36.9770990  54.5886560
  79.1991940  36.3591740  53.8637430  78.7132460  37.7037280  54.3616470
  82.0596510  35.5344230  51.6213950  81.6113810  35.5568490  50.7759500
  81.4261710  35.1363250  52.2184250  82.4656060  44.4298560  52.2426390
  82.8844170  45.2731290  52.0702630  81.5464690  44.5670600  52.0133170
  84.8019960  42.1614740  53.6264230  84.9216170  41.5655880  54.3659070
  85.6613960  42.1984430  53.2065530  87.1407860  42.7151930  52.2026740
  86.6143080  43.2394550  51.5991880  87.4839200  43.3479320  52.8336470
  79.5394250  40.1045300  38.6476450  79.3383310  39.2412660  39.0089790
  79.3686300  40.0178660  37.7098050  80.3163480  50.7351570  53.3584120
  79.7784570  51.4597630  53.0392820  80.5697440  50.2581910  52.5681460
  81.5688730  38.7036090  54.8840050  82.1588420  38.3951940  55.5717870
  80.7508970  38.2315840  55.0399950  86.3882160  38.3201900  55.1173070
  85.6997680  37.6583440  55.0523060  87.1088180  37.8740170  55.5621530
  87.0182560  34.9153530  41.1763330  87.2984850  34.0721430  41.5322750
  86.2448290  35.1476640  41.6902080  78.3377050  37.2045920  38.6354330
  78.6402950  37.2113350  37.7273480  79.0771640  36.8543780  39.1321990
  83.1725690  51.9702780  53.6170770  83.0984390  52.8737920  53.9243140
  82.2704530  51.6514680  53.5892840  81.5561980  36.1480540  39.6210530
  81.2083980  35.4704530  39.0412980  81.7574750  35.6870050  40.4353920
  83.7211020  51.1361290  41.2397130  84.6161810  51.4746260  41.2615890
  83.7528650  50.4140700  40.6121410  74.5752980  49.2977370  46.9204390
  74.9055990  48.4298430  46.6883030  75.0043980  49.5035890  47.7509350
  79.1714900  47.6286380  44.5806360  78.8710440  47.5051350  45.4810270
  79.0652390  46.7694970  44.1722090  75.0643190  50.1647960  49.6586020
  74.6274180  50.3448760  50.4910170  75.6320870  50.9222580  49.5167740
  74.8967620  42.6768190  46.0174900  74.2416460  42.4079830  45.3734600
  75.7345570  42.5672670  45.5676880  89.3857010  46.3916940  52.0439490
  88.5716850  46.8214100  52.3065280  89.7931210  47.0035350  51.4308540
  87.8458060  37.4709480  40.2393390  88.2642940  37.2840460  39.3990050
  87.5394120  36.6188530  40.5496320  75.9343550  43.0620760  50.5578240
  76.3016590  42.9748160  51.4374260  75.3654370  42.2987310  50.4585100
  75.4859550  39.9729850  54.4636660  74.5915600  39.9396610  54.8030370
  76.0257100  40.1716640  55.2287910  76.6532910  38.9432660  39.8694610
  77.3624610  38.5215880  39.3841890  75.9372850  39.0107890  39.2377960
  76.3007070  34.9971990  38.9097260  77.0235200  35.5380930  39.2278480
  76.5731590  34.7235410  38.0338800  75.9899260  34.2478180  48.8119880
  76.6375450  33.6975560  48.3715040  76.4101100  34.5021330  49.6335690
  75.7431260  34.4033850  51.5545200  75.3946080  34.8597670  52.3203380
  75.4118960  33.5090980  51.6367630  77.3495630  47.5753450  55.7198390
  77.3065260  47.2046360  56.6012850  77.4806640  48.5131020  55.8600210
  81.0501660  49.1313040  51.3208110  80.8093020  49.3987600  50.4338630
  81.9904300  49.3018770  51.3758970  83.2556080  35.5945730  55.0764620
  83.1944970  36.1867560  55.8260030  84.1956460  35.4871690  54.9314880
  85.8930640  35.2515790  54.7156910  86.5071050  35.5695080  54.0537990
  86.4380200  34.7664380  55.3352770  76.4151900  33.9310050  54.8295970
  76.9634890  33.7498100  54.0662080  76.4807210  33.1404160  55.3652280
  77.1883660  50.5215700  52.8396170  76.5943980  50.3900400  53.5786210
  77.1807500  49.6853840  52.3738270  86.6338680  33.8147930  51.0426200
  85.7598520  34.1483040  50.8399130  86.5249430  33.3421110  51.8678070
  87.5410660  36.0218800  52.4267920  87.2124020  35.2070560  52.0469650
  88.4892960  35.9788610  52.3033610  76.8195890  47.8874080  51.7904210
  76.0929950  47.2679370  51.7230160  76.8805040  48.2814690  50.9202290
  80.4240990  50.1019080  48.5753620  80.9406010  49.4906440  48.0501880
  81.0738370  50.6047860  49.0664630  83.1636490  50.9927570  49.4022600
  83.4514300  50.7381870  48.5255610  83.6759710  50.4404930  49.9928170
  84.3813500  34.7317770  49.9819110  83.5985290  35.2063270  50.2615870
  84.0876430  33.8272600  49.8732290  88.9334570  35.4340870  48.0268200
  89.3742660  35.3785970  47.1789800  88.6642160  36.3498880  48.0978380
  75.1025890  51.2048470  45.0000970  74.9347930  50.5719150  45.6982860
  74.2360400  51.4107870  44.6495160  75.7253910  35.0365250  42.5032830
  76.4833270  35.1494130  41.9296860  75.2631080  35.8734450  42.4576260
  82.2667720  37.1504520  45.4935140  81.4542230  36.7761410  45.1531020
  82.7709360  36.3949600  45.7956330  86.7692700  33.8146970  46.7318210
  87.3722070  34.3867180  47.2066730  86.0285690  34.3786410  46.5092110
  78.0979060  35.5629300  41.0434800  78.6271820  34.7759100  40.9142750
  78.7307380  36.2420490  41.2770330  80.2916900  35.3004440  44.0980190
  79.6619640  34.5991750  44.2650320  79.7522040  36.0608570  43.8813350
  83.2308850  51.9143670  56.7690800  84.1576160  51.6787940  56.8126760
  83.2159280  52.7415670  56.2876830  80.4172460  34.5788420  56.5332680
  80.1356730  35.0822020  55.7693500  80.7992160  33.7810170  56.1674810
  79.3081560  51.8464080  41.3200360  80.0400380  51.5623360  40.7724250
  79.5675230  51.6077360  42.2099740  87.0187920  33.9942000  57.1113150
  86.9053370  34.3136610  58.0064670  87.8357660  34.3954510  56.8150430
  85.9246070  42.0134470  27.4747890  85.8440120  41.0989080  27.2039600
  85.5110490  42.5101540  26.7687600  84.0564110  43.7913490  29.3557160
  83.2806210  43.3113930  29.6455730  84.7077040  43.1119140  29.1813320
  88.0771540  48.1973680  28.1356290  87.6153070  47.4260920  28.4643460
  88.8897090  48.2239750  28.6408740  76.4821890  39.0635190  24.0175310
  75.5938590  39.4051160  23.9155190  76.7663080  38.8635510  23.1256140
  74.4454900  41.6640840  29.9015010  75.0171010  40.8963040  29.9018650
  74.4456440  41.9629600  28.9921620  84.3034850  50.4831690  27.7560280
  83.6846290  50.9389190  27.1854720  85.1586630  50.6383150  27.3549980
  83.4973100  46.4670680  29.3627320  83.4281380  45.5260620  29.2016450
  84.2592960  46.5572090  29.9349890  75.6879770  37.0725200  31.6883940
  75.5082610  36.1750950  31.9686700  75.2859850  37.6197070  32.3630890
  84.5278270  39.2741060  29.5896250  84.9043090  38.4012940  29.4769920
  84.4297780  39.6099760  28.6986690  78.6583280  37.6466690  25.0513690
  78.7650030  38.5470420  25.3582450  77.7475640  37.5984660  24.7608340
  88.3102390  36.7691500  26.5224590  89.1312010  36.2788070  26.5650070
  88.3436470  37.3589160  27.2756430  76.3066440  39.5685700  30.2966280
  76.9876550  39.8324070  30.9153680  75.9914490  38.7286570  30.6304290
  80.4991010  40.6153060  29.3838870  81.0069230  41.1134030  30.0243890
  81.0304250  39.8388260  29.2078230  78.7827110  35.2551620  33.6502290
  78.7845550  35.7724010  32.8448190  77.9531420  34.7781800  33.6272220
  85.1698200  45.3670930  25.1492190  84.5515470  45.8320380  24.5854910
  85.6821450  46.0598410  25.5661700  80.0329960  44.8946800  31.8275790
  79.6999340  45.5215720  32.4696860  80.2096640  45.4208680  31.0477460
  88.5463870  38.7091880  29.2952130  87.8419440  38.9976770  29.8755240
  88.9076030  39.5191990  28.9351690  78.4642440  36.9661580  31.6572740
  78.8059250  37.8103630  31.3626610  77.5258250  37.1145320  31.7738080
  79.2449060  46.8627600  33.6424970  79.8623060  47.5378680  33.3609420
  78.3842180  47.2715580  33.5512470  82.1470330  34.4543850  27.9817330
  82.4545310  33.8990740  27.2652830  81.2171030  34.5888310  27.7990320
  87.6985390  50.1711140  30.2724790  87.7112550  49.7673430  29.4047050
  87.1460610  50.9458430  30.1686220  88.9930810  46.8927360  25.3614960
  88.8827140  45.9501690  25.4864380  88.9899060  47.2543000  26.2477720
  87.0970830  45.0740980  31.6007400  87.5139620  44.8601090  30.7660860
  87.8210650  45.3313770  32.1716020  84.5351090  42.5192680  24.7177450
  83.6080370  42.4530060  24.9465920  84.6875910  43.4572810  24.6032690
  84.5220170  38.7909680  21.7144610  83.5823840  38.9523640  21.7997070
  84.8403430  39.5095360  21.1680600  88.5648380  44.0812980  25.2212700
  87.9460800  43.7432530  24.5739000  88.5472830  43.4372740  25.9291890
  88.0074940  40.2597520  32.6378510  87.5946120  41.0851230  32.8918500
  87.2750890  39.6742560  32.4454870  80.1407730  43.0457420  27.4997180
  79.7364730  42.3334670  27.0043080  80.2270850  42.7010660  28.3885220
  80.6089430  46.7324980  29.6636390  80.3117720  46.1270450  28.9844170
  81.5589250  46.7702290  29.5525750  78.8536350  39.8200630  31.2796220
  79.4050940  39.9295970  30.5049470  79.3679860  40.1938230  31.9951450
  88.6975040  50.3056850  33.3259490  88.2205600  51.1129040  33.1332100
  88.0136830  49.6535180  33.4785700  79.7007860  46.4706670  36.3144190
  78.8036390  46.6946640  36.5617590  79.7260730  46.5941610  35.3655590
  86.7413080  43.3199790  22.2285450  87.1806360  42.4822220  22.0823270
  87.4541500  43.9529190  22.3149590  78.5279080  43.3419990  34.8901560
  78.3886850  44.2142790  35.2588960  77.6460440  42.9992800  34.7449500
  84.8508460  48.2595860  26.1966690  85.2904370  49.0020190  25.7822080
  84.7895350  48.5022430  27.1205650  80.3259430  49.2841690  37.0986710
  80.2974860  49.6884640  36.2315140  80.1624400  48.3552050  36.9358310
  76.8412360  41.9402400  25.0003830  76.7209960  42.6664490  24.3885100
  76.5313250  41.1705310  24.5231740  85.5424240  50.9609640  34.1245700
  86.0568910  50.8717650  34.9268130  84.6993320  51.3069340  34.4173610
  87.5178640  51.2464980  23.5529700  87.3579780  50.9567920  24.4511530
  87.3525350  50.4705110  23.0174930  79.9967020  51.0263510  25.3301320
  79.8209500  50.1099050  25.1169120  79.1422760  51.3850800  25.5699120
  87.2204770  48.7552540  22.1127700  86.5269930  48.7529830  21.4529980
  87.9627630  48.3311860  21.6821870  86.7854700  50.3815250  26.1876190
  87.2411650  49.6004630  26.5014810  87.1247220  51.0922070  26.7317370
  79.3076020  35.2837470  28.3827500  78.8644170  36.0647010  28.0512020
  79.8661010  35.6067360  29.0898440  83.5945830  38.1505990  33.9862820
  83.1325200  38.3589010  34.7982760  83.1923940  37.3365340  33.6833490
  88.5950340  39.3714940  35.1159480  87.7443930  39.0720690  35.4368550
  88.4352130  39.6156950  34.2043300  85.6900050  40.8716690  37.2158270
  86.0153460  40.0380440  36.8760500  86.4780380  41.3945210  37.3636600
  82.4234840  34.9048170  23.2633330  81.7989020  34.9008040  23.9886640
  82.3364960  34.0379130  22.8669300  81.3451920  35.8284800  30.2417100
  81.6424250  36.7347630  30.1609120  81.8937480  35.3403580  29.6276670
  79.0990240  40.4071040  26.1108750  78.8731160  40.1908210  27.0155370
  78.3182770  40.8399500  25.7654720  86.3288000  40.4134410  24.7099400
  85.7296890  41.1370210  24.5263020  86.8767610  40.3511190  23.9275850
  81.5389450  41.3056620  36.7769020  81.4433050  40.3651350  36.6269420
  82.3821430  41.5271690  36.3817090  84.9352870  39.0497950  26.7402680
  85.3282440  39.3670150  25.9271370  85.2969720  38.1709830  26.8547200
  76.6699990  37.7170290  34.9302800  76.2763380  38.5645500  35.1375580
  75.9818390  37.0796660  35.1211440  83.2445040  37.8005260  37.9999540
  82.5543360  37.6077460  38.6345630  83.9877340  38.0839900  38.5323840
  73.9717040  35.6398750  28.9632880  73.6830090  36.2101610  29.6757860
  74.7162800  35.1603200  29.3264110  74.1587270  39.5818870  20.1735600
  74.0761940  40.5249630  20.3150590  73.8070330  39.4393780  19.2947950
  85.5208010  41.6403700  30.8353460  84.7889130  42.1490510  31.1843560
  85.1232350  40.8233680  30.5342240  81.9585400  38.3157900  29.2405950
  81.9621460  37.8747850  28.3910490  82.8536520  38.6375230  29.3477770
  77.8087780  38.1984390  28.2000160  77.4687830  38.6759620  28.9567210
  77.0465100  37.7449510  27.8401260  82.0205550  39.3169980  22.2312710
  82.1418370  39.2756460  23.1798530  81.6354060  40.1794130  22.0759440
  85.9833920  37.0937380  30.2476400  86.0006660  37.5446030  31.0918250
  85.7349500  36.1943020  30.4609840  81.0327050  41.6271120  21.6296010
  80.4643950  41.1789370  21.0031920  81.7416050  41.9863900  21.0961160
  89.4104670  34.5069560  36.0862780  89.7350440  33.7759220  36.6120760
  89.4461180  34.1883200  35.1843770  82.2593370  42.3759680  30.9871360
  82.6263500  41.9018250  31.7332700  82.0698430  43.2501250  31.3279700
  75.1233860  37.1203370  27.1164830  74.8380780  36.7559040  27.9543450
  75.0612720  36.3883830  26.5027970  80.0492740  41.4168320  33.3055570
  79.7449810  42.2960300  33.5305930  81.0039200  41.4768110  33.3413010
  78.5774530  45.6229310  23.9022420  77.8036790  45.0826930  23.7421140
  79.3069160  45.1035920  23.5640180  84.7972450  36.0132630  23.8378200
  83.9837060  35.5145800  23.7623510  84.6034400  36.8530880  23.4214550
  84.7181310  44.6903730  35.5817810  84.6518620  43.7699400  35.3275400
  84.0886450  44.7879170  36.2962450  87.5120840  40.3852280  22.1340360
  88.4000460  40.6969510  21.9591700  87.4825930  39.5124530  21.7420940
  78.6211930  45.2909690  27.5401230  79.1390600  44.4877950  27.4858120
  78.1695950  45.2288830  28.3818060  83.5081430  46.5575970  22.8128530
  83.8497130  47.3018200  22.3171850  82.6794140  46.8707090  23.1753360
  76.1056470  42.2571060  34.4526930  75.7471410  42.9224910  35.0400270
  75.8111030  41.4254610  34.8239550  79.3069590  42.7155300  37.3366480
  79.0069730  42.8612480  36.4394300  80.0780830  42.1560590  37.2439870
  84.6498040  47.5124300  35.3321610  84.6642580  46.5805260  35.1140520
  83.9423140  47.5984060  35.9711380  86.3908840  45.8791810  28.1774040
  86.7432660  45.2819940  27.5175410  85.5071170  45.5536040  28.3482290
  82.4772120  46.6389500  25.5844450  83.1643250  47.1858710  25.9652040
  81.6904540  47.1830230  25.6194060  74.6164520  42.2562320  21.0761530
  75.4859370  42.5387120  21.3597450  74.1254840  43.0698190  20.9610340
  81.7799330  43.6435530  25.1969810  82.2362110  44.4540780  25.4230000
  81.4287540  43.3258670  26.0288300  84.0831940  49.1541870  32.4262110
  84.7274160  49.3601250  33.1035530  84.4461380  48.3930270  31.9732960
  77.6811110  33.9873180  25.6692330  77.5525740  33.9791080  26.6177250
  76.8573130  34.3256270  25.3183340  85.3564020  47.1574220  31.1439560
  85.9986250  46.4567380  31.2571730  85.8813370  47.9372660  30.9636450
  89.2019740  47.4422840  20.8678700  88.9757320  46.7253280  21.4603340
  88.8115940  47.1935280  20.0300450  87.1301640  47.9569120  34.3475620
  87.4657880  48.5435810  35.0253540  86.2101980  47.8261830  34.5773410
  74.9835770  51.4689700  21.6423160  75.3433410  52.0679040  20.9880430
  74.8428110  52.0149590  22.4158190  74.6805040  35.7464300  35.1299030
  73.9663560  35.9461220  35.7351640  75.1000080  34.9703870  35.5013830
  88.7835990  45.3594780  22.5292860  88.4957690  45.8207470  23.3170740
  89.5788160  44.8992550  22.7977080  82.9590220  48.0060450  37.5163680
  82.6387090  47.2869690  38.0609370  82.2848580  48.6815520  37.5899740
  81.0004390  48.8520900  22.4596830  80.9914490  49.5850590  21.8441340
  80.0802750  48.6052480  22.5523790  76.6011030  44.0735790  23.2043590
  75.9938980  44.8134690  23.2138890  77.0760380  44.1635150  22.3781790
  86.1743820  38.2386610  32.8800480  86.5424640  37.4181820  33.2080050
  85.3142020  38.2988500  33.2956130  89.5405850  37.1943550  23.6888040
  88.9119010  37.2989220  22.9746270  89.0457770  37.4140330  24.4781920
  83.9863990  48.9149140  21.1222020  84.0875970  48.7113130  20.1924000
  83.0865730  48.6607420  21.3269800  81.5089880  39.4729500  25.1045920
  80.8006030  39.9415840  25.5459530  81.7934360  38.8151510  25.7391110
  83.1345810  40.8926200  33.1038450  83.6331060  41.3672020  33.7690300
  83.2768760  39.9689720  33.3108480  85.5405310  36.1980160  26.5441710
  85.4173090  36.2166290  25.5951220  86.4889870  36.2459100  26.6640110
  82.6282100  51.4335460  25.8169690  82.8823600  51.3956850  24.8949060
  81.6794580  51.3068790  25.8097940  79.7124900  37.7814580  22.4796630
  80.5615430  38.2184730  22.4136820  79.3456170  38.0934840  23.3068690
  88.6334680  42.3527340  27.3928200  87.6924820  42.3677570  27.5675890
  88.9478750  41.5663300  27.8388500  78.6116320  44.0346940  20.9532160
  79.3779590  43.9228300  21.5157590  78.6891010  43.3384910  20.3008930
  77.3063080  41.4672010  21.6365050  77.3866670  40.5199520  21.7482450
  78.1982830  41.7978890  21.7425710  77.1136070  50.8013470  37.9285170
  77.9148800  51.1225520  38.3420570  76.5987890  50.4409050  38.6505080
  81.2180100  50.7897710  20.5625160  82.0108710  51.0786540  20.1106950
  80.6984450  50.3589880  19.8837640  85.9500700  46.9093340  37.8760580
  85.3438860  46.9324940  37.1356330  85.6454810  46.1776380  38.4127830
  87.3801070  50.6373630  36.4869990  88.3322820  50.5531650  36.4370230
  87.2329290  51.3015340  37.1603780  81.7357500  46.0101120  20.4267510
  81.6308140  45.3953470  21.1528890  81.5681720  45.4867010  19.6430520
  81.8871820  44.6957920  36.4056740  81.1217490  45.2642920  36.3211410
  82.0687780  44.4034130  35.5124970  84.9760230  45.0721150  21.0309500
  84.4270330  45.5190450  21.6752240  85.5979490  44.5670400  21.5547170
  89.0295170  46.4263250  36.9631760  89.7704640  46.7639010  36.4599220
  88.2667850  46.5955310  36.4101530  76.8656960  41.4316520  37.7671290
  76.9062300  41.1330390  38.6756520  77.7202460  41.8324130  37.6078810
  80.6435350  44.0312070  22.9274800  81.0651770  43.8651940  23.7706190
  80.7686190  43.2212300  22.4329940  78.8062770  40.0108620  35.7345780
  78.2759230  39.5199570  35.1069120  79.4750840  40.4392820  35.2003710
  83.1562990  43.0549680  20.1751900  83.6768650  42.3398700  19.8093050
  83.8031390  43.6935550  20.4752410  87.7040830  44.4778080  35.4986970
  88.1181850  44.6323160  36.3477390  86.7691830  44.6033300  35.6612750
  88.1763000  41.8174240  37.5026120  88.7583770  41.0626560  37.4146600
  88.3524770  42.3481680  36.7257600  79.2935070  36.9770990  35.8143070
  79.1991940  36.3591740  35.0893940  78.7132460  37.7037280  35.5872980
  82.0596510  35.5344230  32.8470460  81.6113810  35.5568490  32.0016010
  81.4261710  35.1363250  33.4440760  82.4656060  44.4298560  33.4682900
  82.8844170  45.2731290  33.2959140  81.5464690  44.5670600  33.2389680
  84.8019960  42.1614740  34.8520740  84.9216170  41.5655880  35.5915580
  85.6613960  42.1984430  34.4322040  87.1407860  42.7151930  33.4283250
  86.6143080  43.2394550  32.8248390  87.4839200  43.3479320  34.0592980
  79.5394250  40.1045300  19.8732960  79.3383310  39.2412660  20.2346300
  79.3686300  40.0178660  18.9354560  80.3163480  50.7351570  34.5840630
  79.7784570  51.4597630  34.2649330  80.5697440  50.2581910  33.7937970
  81.5688730  38.7036090  36.1096560  82.1588420  38.3951940  36.7974380
  80.7508970  38.2315840  36.2656460  86.3882160  38.3201900  36.3429580
  85.6997680  37.6583440  36.2779570  87.1088180  37.8740170  36.7878040
  87.0182560  34.9153530  22.4019840  87.2984850  34.0721430  22.7579260
  86.2448290  35.1476640  22.9158590  78.3377050  37.2045920  19.8610840
  78.6402950  37.2113350  18.9529990  79.0771640  36.8543780  20.3578500
  83.1725690  51.9702780  34.8427280  83.0984390  52.8737920  35.1499650
  82.2704530  51.6514680  34.8149350  81.5561980  36.1480540  20.8467040
  81.2083980  35.4704530  20.2669490  81.7574750  35.6870050  21.6610430
  83.7211020  51.1361290  22.4653640  84.6161810  51.4746260  22.4872400
  83.7528650  50.4140700  21.8377920  77.3607180  46.5088340  20.6940640
  77.7982050  47.0518010  21.3498220  77.8454910  45.6835290  20.7036980
  79.1714900  47.6286380  25.8062870  78.8710440  47.5051350  26.7066780
  79.0652390  46.7694970  25.3978600  89.3857010  46.3916940  33.2696000
  88.5716850  46.8214100  33.5321790  89.7931210  47.0035350  32.6565050
  87.8458060  37.4709480  21.4649900  88.2642940  37.2840460  20.6246560
  87.5394120  36.6188530  21.7752830  75.4859550  39.9729850  35.6893170
  74.5915600  39.9396610  36.0286880  76.0257100  40.1716640  36.4544420
  74.1105700  39.8867120  23.1856740  73.2069780  40.1497320  23.0108400
  74.5946320  40.1578290  22.4056700  76.6532910  38.9432660  21.0951120
  77.3624610  38.5215880  20.6098400  75.9372850  39.0107890  20.4634470
  76.3007070  34.9971990  20.1353770  77.0235200  35.5380930  20.4534990
  76.5731590  34.7235410  19.2595310  75.9899260  34.2478180  30.0376390
  76.6375450  33.6975560  29.5971550  76.4101100  34.5021330  30.8592200
  75.7431260  34.4033850  32.7801710  75.3946080  34.8597670  33.5459890
  75.4118960  33.5090980  32.8624140  77.3495630  47.5753450  36.9454900
  77.3065260  47.2046360  37.8269360  77.4806640  48.5131020  37.0856720
  81.0501660  49.1313040  32.5464620  80.8093020  49.3987600  31.6595140
  81.9904300  49.3018770  32.6015480  83.2556080  35.5945730  36.3021130
  83.1944970  36.1867560  37.0516540  84.1956460  35.4871690  36.1571390
  85.8930640  35.2515790  35.9413420  86.5071050  35.5695080  35.2794500
  86.4380200  34.7664380  36.5609280  76.4151900  33.9310050  36.0552480
  76.9634890  33.7498100  35.2918590  76.4807210  33.1404160  36.5908790
  86.6338680  33.8147930  32.2682710  85.7598520  34.1483040  32.0655640
  86.5249430  33.3421110  33.0934580  87.5410660  36.0218800  33.6524430
  87.2124020  35.2070560  33.2726160  88.4892960  35.9788610  33.5290120
  80.4240990  50.1019080  29.8010130  80.9406010  49.4906440  29.2758390
  81.0738370  50.6047860  30.2921140  83.1636490  50.9927570  30.6279110
  83.4514300  50.7381870  29.7512120  83.6759710  50.4404930  31.2184680
  84.3813500  34.7317770  31.2075620  83.5985290  35.2063270  31.4872380
  84.0876430  33.8272600  31.0988800  88.9334570  35.4340870  29.2524710
  89.3742660  35.3785970  28.4046310  88.6642160  36.3498880  29.3234890
  75.7253910  35.0365250  23.7289340  76.4833270  35.1494130  23.1553370
  75.2631080  35.8734450  23.6832770  82.2667720  37.1504520  26.7191650
  81.4542230  36.7761410  26.3787530  82.7709360  36.3949600  27.0212840
  86.7692700  33.8146970  27.9574720  87.3722070  34.3867180  28.4323240
  86.0285690  34.3786410  27.7348620  76.7088590  49.8981700  23.6707620
  76.1836210  50.2789730  22.9669580  76.6333170  50.5232470  24.3917330
  78.0979060  35.5629300  22.2691310  78.6271820  34.7759100  22.1399260
  78.7307380  36.2420490  22.5026840  80.2916900  35.3004440  25.3236700
  79.6619640  34.5991750  25.4906830  79.7522040  36.0608570  25.1069860
  83.2308850  51.9143670  37.9947310  84.1576160  51.6787940  38.0383270
  83.2159280  52.7415670  37.5133340  80.4172460  34.5788420  37.7589190
  80.1356730  35.0822020  36.9950010  80.7992160  33.7810170  37.3931320
  79.3081560  51.8464080  22.5456870  80.0400380  51.5623360  21.9980760
  79.5675230  51.6077360  23.4356250  78.4696350  47.9628810  22.5503200
  77.8405230  48.4313910  23.0989030  78.5844180  47.1178030  22.9849390
  87.0187920  33.9942000  38.3369660  86.9053370  34.3136610  39.2321180
  87.8357660  34.3954510  38.0406940  85.9246070  42.0134470   8.7004400
  85.8440120  41.0989080   8.4296110  85.5110490  42.5101540   7.9944110
  84.0564110  43.7913490  10.5813670  83.2806210  43.3113930  10.8712240
  84.7077040  43.1119140  10.4069830  78.0729940  44.1033300  11.4589430
  77.2414820  43.8482010  11.8585940  78.6810920  44.1744070  12.1947350
  88.0771540  48.1973680   9.3612800  87.6153070  47.4260920   9.6899970
  88.8897090  48.2239750   9.8665250  78.0531200  48.1373390  11.6547450
  78.3559240  47.2471130  11.4757670  78.7974790  48.6943610  11.4269700
  76.4821890  39.0635190   5.2431820  75.5938590  39.4051160   5.1411700
  76.7663080  38.8635510   4.3512650  74.4454900  41.6640840  11.1271520
  75.0171010  40.8963040  11.1275160  74.4456440  41.9629600  10.2178130
  84.3034850  50.4831690   8.9816790  83.6846290  50.9389190   8.4111230
  85.1586630  50.6383150   8.5806490  83.4973100  46.4670680  10.5883830
  83.4281380  45.5260620  10.4272960  84.2592960  46.5572090  11.1606400
  75.6879770  37.0725200  12.9140450  75.5082610  36.1750950  13.1943210
  75.2859850  37.6197070  13.5887400  84.5278270  39.2741060  10.8152760
  84.9043090  38.4012940  10.7026430  84.4297780  39.6099760   9.9243200
  78.6583280  37.6466690   6.2770200  78.7650030  38.5470420   6.5838960
  77.7475640  37.5984660   5.9864850  88.3102390  36.7691500   7.7481100
  89.1312010  36.2788070   7.7906580  88.3436470  37.3589160   8.5012940
  76.3066440  39.5685700  11.5222790  76.9876550  39.8324070  12.1410190
  75.9914490  38.7286570  11.8560800  80.4991010  40.6153060  10.6095380
  81.0069230  41.1134030  11.2500400  81.0304250  39.8388260  10.4334740
  78.7827110  35.2551620  14.8758800  78.7845550  35.7724010  14.0704700
  77.9531420  34.7781800  14.8528730  85.1698200  45.3670930   6.3748700
  84.5515470  45.8320380   5.8111420  85.6821450  46.0598410   6.7918210
  80.0329960  44.8946800  13.0532300  79.6999340  45.5215720  13.6953370
  80.2096640  45.4208680  12.2733970  88.5463870  38.7091880  10.5208640
  87.8419440  38.9976770  11.1011750  88.9076030  39.5191990  10.1608200
  78.4642440  36.9661580  12.8829250  78.8059250  37.8103630  12.5883120
  77.5258250  37.1145320  12.9994590  79.2449060  46.8627600  14.8681480
  79.8623060  47.5378680  14.5865930  78.3842180  47.2715580  14.7768980
  74.5381400  46.0527460   3.7488330  74.1609380  46.5414560   3.0173230
  74.7954470  46.7252740   4.3794860  82.1470330  34.4543850   9.2073840
  82.4545310  33.8990740   8.4909340  81.2171030  34.5888310   9.0246830
  87.6985390  50.1711140  11.4981300  87.7112550  49.7673430  10.6303560
  87.1460610  50.9458430  11.3942730  88.9930810  46.8927360   6.5871470
  88.8827140  45.9501690   6.7120890  88.9899060  47.2543000   7.4734230
  87.0970830  45.0740980  12.8263910  87.5139620  44.8601090  11.9917370
  87.8210650  45.3313770  13.3972530  84.5351090  42.5192680   5.9433960
  83.6080370  42.4530060   6.1722430  84.6875910  43.4572810   5.8289200
  84.5220170  38.7909680   2.9401120  83.5823840  38.9523640   3.0253580
  84.8403430  39.5095360   2.3937110  88.5648380  44.0812980   6.4469210
  87.9460800  43.7432530   5.7995510  88.5472830  43.4372740   7.1548400
  88.0074940  40.2597520  13.8635020  87.5946120  41.0851230  14.1175010
  87.2750890  39.6742560  13.6711380  80.1407730  43.0457420   8.7253690
  79.7364730  42.3334670   8.2299590  80.2270850  42.7010660   9.6141730
  80.6089430  46.7324980  10.8892900  80.3117720  46.1270450  10.2100680
  81.5589250  46.7702290  10.7782260  78.8536350  39.8200630  12.5052730
  79.4050940  39.9295970  11.7305980  79.3679860  40.1938230  13.2207960
  88.6975040  50.3056850  14.5516000  88.2205600  51.1129040  14.3588610
  88.0136830  49.6535180  14.7042210  79.7007860  46.4706670  17.5400700
  78.8036390  46.6946640  17.7874100  79.7260730  46.5941610  16.5912100
  86.7413080  43.3199790   3.4541960  87.1806360  42.4822220   3.3079780
  87.4541500  43.9529190   3.5406100  78.5279080  43.3419990  16.1158070
  78.3886850  44.2142790  16.4845470  77.6460440  42.9992800  15.9706010
  84.8508460  48.2595860   7.4223200  85.2904370  49.0020190   7.0078590
  84.7895350  48.5022430   8.3462160  80.3259430  49.2841690  18.3243220
  80.2974860  49.6884640  17.4571650  80.1624400  48.3552050  18.1614820
  76.8412360  41.9402400   6.2260340  76.7209960  42.6664490   5.6141610
  76.5313250  41.1705310   5.7488250  74.4797730  45.1117540  12.0328980
  74.5578150  45.2466310  11.0884700  75.0939410  44.4033430  12.2257100
  75.7245360  46.8117730   8.4435160  75.3173440  46.9532320   7.5888760
  76.6158370  46.5277890   8.2406370  85.5424240  50.9609640  15.3502210
  86.0568910  50.8717650  16.1524640  84.6993320  51.3069340  15.6430120
  87.5178640  51.2464980   4.7786210  87.3579780  50.9567920   5.6768040
  87.3525350  50.4705110   4.2431440  79.9967020  51.0263510   6.5557830
  79.8209500  50.1099050   6.3425630  79.1422760  51.3850800   6.7955630
  87.2204770  48.7552540   3.3384210  86.5269930  48.7529830   2.6786490
  87.9627630  48.3311860   2.9078380  86.7854700  50.3815250   7.4132700
  87.2411650  49.6004630   7.7271320  87.1247220  51.0922070   7.9573880
  74.5357250  46.1531710  14.5723440  74.6988290  45.6837070  13.7542810
  75.0009700  45.6455270  15.2372280  79.3076020  35.2837470   9.6084010
  78.8644170  36.0647010   9.2768530  79.8661010  35.6067360  10.3154950
  83.5945830  38.1505990  15.2119330  83.1325200  38.3589010  16.0239270
  83.1923940  37.3365340  14.9090000  88.5950340  39.3714940  16.3415990
  87.7443930  39.0720690  16.6625060  88.4352130  39.6156950  15.4299810
  85.6900050  40.8716690  18.4414780  86.0153460  40.0380440  18.1017010
  86.4780380  41.3945210  18.5893110  82.4234840  34.9048170   4.4889840
  81.7989020  34.9008040   5.2143150  82.3364960  34.0379130   4.0925810
  81.3451920  35.8284800  11.4673610  81.6424250  36.7347630  11.3865630
  81.8937480  35.3403580  10.8533180  79.0990240  40.4071040   7.3365260
  78.8731160  40.1908210   8.2411880  78.3182770  40.8399500   6.9911230
  86.3288000  40.4134410   5.9355910  85.7296890  41.1370210   5.7519530
  86.8767610  40.3511190   5.1532360  81.5389450  41.3056620  18.0025530
  81.4433050  40.3651350  17.8525930  82.3821430  41.5271690  17.6073600
  84.9352870  39.0497950   7.9659190  85.3282440  39.3670150   7.1527880
  85.2969720  38.1709830   8.0803710  76.6699990  37.7170290  16.1559310
  76.2763380  38.5645500  16.3632090  75.9818390  37.0796660  16.3467950
  83.2445040  37.8005260  19.2256050  82.5543360  37.6077460  19.8602140
  83.9877340  38.0839900  19.7580350  73.9717040  35.6398750  10.1889390
  73.6830090  36.2101610  10.9014370  74.7162800  35.1603200  10.5520620
  85.5208010  41.6403700  12.0609970  84.7889130  42.1490510  12.4100070
  85.1232350  40.8233680  11.7598750  81.9585400  38.3157900  10.4662460
  81.9621460  37.8747850   9.6167000  82.8536520  38.6375230  10.5734280
  77.8087780  38.1984390   9.4256670  77.4687830  38.6759620  10.1823720
  77.0465100  37.7449510   9.0657770  82.0205550  39.3169980   3.4569220
  82.1418370  39.2756460   4.4055040  81.6354060  40.1794130   3.3015950
  85.9833920  37.0937380  11.4732910  86.0006660  37.5446030  12.3174760
  85.7349500  36.1943020  11.6866350  81.0327050  41.6271120   2.8552520
  80.4643950  41.1789370   2.2288430  81.7416050  41.9863900   2.3217670
  89.4104670  34.5069560  17.3119290  89.7350440  33.7759220  17.8377270
  89.4461180  34.1883200  16.4100280  76.1096230  45.5283140  16.7319250
  75.7251020  44.8876810  17.3302210  76.4208420  46.2319260  17.3013980
  82.2593370  42.3759680  12.2127870  82.6263500  41.9018250  12.9589210
  82.0698430  43.2501250  12.5536210  75.1233860  37.1203370   8.3421340
  74.8380780  36.7559040   9.1799960  75.0612720  36.3883830   7.7284480
  80.0492740  41.4168320  14.5312080  79.7449810  42.2960300  14.7562440
  81.0039200  41.4768110  14.5669520  78.5774530  45.6229310   5.1278930
  77.8036790  45.0826930   4.9677650  79.3069160  45.1035920   4.7896690
  84.7972450  36.0132630   5.0634710  83.9837060  35.5145800   4.9880020
  84.6034400  36.8530880   4.6471060  84.7181310  44.6903730  16.8074320
  84.6518620  43.7699400  16.5531910  84.0886450  44.7879170  17.5218960
  87.5120840  40.3852280   3.3596870  88.4000460  40.6969510   3.1848210
  87.4825930  39.5124530   2.9677450  78.6211930  45.2909690   8.7657740
  79.1390600  44.4877950   8.7114630  78.1695950  45.2288830   9.6074570
  83.5081430  46.5575970   4.0385040  83.8497130  47.3018200   3.5428360
  82.6794140  46.8707090   4.4009870  76.1056470  42.2571060  15.6783440
  75.7471410  42.9224910  16.2656780  75.8111030  41.4254610  16.0496060
  79.3069590  42.7155300  18.5622990  79.0069730  42.8612480  17.6650810
  80.0780830  42.1560590  18.4696380  84.6498040  47.5124300  16.5578120
  84.6642580  46.5805260  16.3397030  83.9423140  47.5984060  17.1967890
  86.3908840  45.8791810   9.4030550  86.7432660  45.2819940   8.7431920
  85.5071170  45.5536040   9.5738800  82.4772120  46.6389500   6.8100960
  83.1643250  47.1858710   7.1908550  81.6904540  47.1830230   6.8450570
  74.6164520  42.2562320   2.3018040  75.4859370  42.5387120   2.5853960
  74.1254840  43.0698190   2.1866850  81.7799330  43.6435530   6.4226320
  82.2362110  44.4540780   6.6486510  81.4287540  43.3258670   7.2544810
  84.0831940  49.1541870  13.6518620  84.7274160  49.3601250  14.3292040
  84.4461380  48.3930270  13.1989470  77.6811110  33.9873180   6.8948840
  77.5525740  33.9791080   7.8433760  76.8573130  34.3256270   6.5439850
  85.3564020  47.1574220  12.3696070  85.9986250  46.4567380  12.4828240
  85.8813370  47.9372660  12.1892960  87.1301640  47.9569120  15.5732130
  87.4657880  48.5435810  16.2510050  86.2101980  47.8261830  15.8029920
  74.9835770  51.4689700   2.8679670  75.3433410  52.0679040   2.2136940
  74.8428110  52.0149590   3.6414700  74.6805040  35.7464300  16.3555540
  73.9663560  35.9461220  16.9608150  75.1000080  34.9703870  16.7270340
  88.7835990  45.3594780   3.7549370  88.4957690  45.8207470   4.5427250
  89.5788160  44.8992550   4.0233590  74.9677630  49.7344560  17.3422070
  75.0768750  48.7939300  17.2017460  74.3158190  49.9999310  16.6935800
  82.9590220  48.0060450  18.7420190  82.6387090  47.2869690  19.2865880
  82.2848580  48.6815520  18.8156250  81.0004390  48.8520900   3.6853340
  80.9914490  49.5850590   3.0697850  80.0802750  48.6052480   3.7780300
  76.6011030  44.0735790   4.4300100  75.9938980  44.8134690   4.4395400
  77.0760380  44.1635150   3.6038300  86.1743820  38.2386610  14.1056990
  86.5424640  37.4181820  14.4336560  85.3142020  38.2988500  14.5212640
  89.5405850  37.1943550   4.9144550  88.9119010  37.2989220   4.2002780
  89.0457770  37.4140330   5.7038430  81.5089880  39.4729500   6.3302430
  80.8006030  39.9415840   6.7716040  81.7934360  38.8151510   6.9647620
  83.1345810  40.8926200  14.3294960  83.6331060  41.3672020  14.9946810
  83.2768760  39.9689720  14.5364990  85.5405310  36.1980160   7.7698220
  85.4173090  36.2166290   6.8207730  86.4889870  36.2459100   7.8896620
  82.6282100  51.4335460   7.0426200  82.8823600  51.3956850   6.1205570
  81.6794580  51.3068790   7.0354450  79.7124900  37.7814580   3.7053140
  80.5615430  38.2184730   3.6393330  79.3456170  38.0934840   4.5325200
  88.6334680  42.3527340   8.6184710  87.6924820  42.3677570   8.7932400
  88.9478750  41.5663300   9.0645010  77.3063080  41.4672010   2.8621560
  77.3866670  40.5199520   2.9738960  78.1982830  41.7978890   2.9682220
  78.1077790  51.6167400   9.9656100  78.8440270  51.0682860  10.2364670
  78.4918710  52.4823410   9.8262090  74.9923270  47.6840970   5.8397610
  74.0663050  47.9262110   5.8303020  75.4579700  48.5115230   5.7182360
  77.1136070  50.8013470  19.1541680  77.9148800  51.1225520  19.5677080
  76.5987890  50.4409050  19.8761590  85.9500700  46.9093340  19.1017090
  85.3438860  46.9324940  18.3612840  85.6454810  46.1776380  19.6384340
  87.3801070  50.6373630  17.7126500  88.3322820  50.5531650  17.6626740
  87.2329290  51.3015340  18.3860290  74.8333880  43.2886930  18.0977730
  75.3372900  42.7094210  18.6693960  74.0941300  43.5727160  18.6354100
  81.8871820  44.6957920  17.6313250  81.1217490  45.2642920  17.5467920
  82.0687780  44.4034130  16.7381480  84.9760230  45.0721150   2.2566010
  84.4270330  45.5190450   2.9008750  85.5979490  44.5670400   2.7803680
  89.0295170  46.4263250  18.1888270  89.7704640  46.7639010  17.6855730
  88.2667850  46.5955310  17.6358040  76.8656960  41.4316520  18.9927800
  76.9062300  41.1330390  19.9013030  77.7202460  41.8324130  18.8335320
  80.6435350  44.0312070   4.1531310  81.0651770  43.8651940   4.9962700
  80.7686190  43.2212300   3.6586450  78.8062770  40.0108620  16.9602290
  78.2759230  39.5199570  16.3325630  79.4750840  40.4392820  16.4260220
  87.7040830  44.4778080  16.7243480  88.1181850  44.6323160  17.5733900
  86.7691830  44.6033300  16.8869260  88.1763000  41.8174240  18.7282630
  88.7583770  41.0626560  18.6403110  88.3524770  42.3481680  17.9514110
  79.2935070  36.9770990  17.0399580  79.1991940  36.3591740  16.3150450
  78.7132460  37.7037280  16.8129490  82.0596510  35.5344230  14.0726970
  81.6113810  35.5568490  13.2272520  81.4261710  35.1363250  14.6697270
  82.4656060  44.4298560  14.6939410  82.8844170  45.2731290  14.5215650
  81.5464690  44.5670600  14.4646190  84.8019960  42.1614740  16.0777250
  84.9216170  41.5655880  16.8172090  85.6613960  42.1984430  15.6578550
  87.1407860  42.7151930  14.6539760  86.6143080  43.2394550  14.0504900
  87.4839200  43.3479320  15.2849490  80.3163480  50.7351570  15.8097140
  79.7784570  51.4597630  15.4905840  80.5697440  50.2581910  15.0194480
  81.5688730  38.7036090  17.3353070  82.1588420  38.3951940  18.0230890
  80.7508970  38.2315840  17.4912970  86.3882160  38.3201900  17.5686090
  85.6997680  37.6583440  17.5036080  87.1088180  37.8740170  18.0134550
  87.0182560  34.9153530   3.6276350  87.2984850  34.0721430   3.9835770
  86.2448290  35.1476640   4.1415100  83.1725690  51.9702780  16.0683790
  83.0984390  52.8737920  16.3756160  82.2704530  51.6514680  16.0405860
  83.7211020  51.1361290   3.6910150  84.6161810  51.4746260   3.7128910
  83.7528650  50.4140700   3.0634430  77.3607180  46.5088340   1.9197150
  77.7982050  47.0518010   2.5754730  77.8454910  45.6835290   1.9293490
  74.5752980  49.2977370   9.3717410  74.9055990  48.4298430   9.1396050
  75.0043980  49.5035890  10.2022370  79.1714900  47.6286380   7.0319380
  78.8710440  47.5051350   7.9323290  79.0652390  46.7694970   6.6235110
  75.0643190  50.1647960  12.1099040  74.6274180  50.3448760  12.9423190
  75.6320870  50.9222580  11.9680760  74.8967620  42.6768190   8.4687920
  74.2416460  42.4079830   7.8247620  75.7345570  42.5672670   8.0189900
  89.3857010  46.3916940  14.4952510  88.5716850  46.8214100  14.7578300
  89.7931210  47.0035350  13.8821560  87.8458060  37.4709480   2.6906410
  88.2642940  37.2840460   1.8503070  87.5394120  36.6188530   3.0009340
  75.9343550  43.0620760  13.0091260  76.3016590  42.9748160  13.8887280
  75.3654370  42.2987310  12.9098120  75.4859550  39.9729850  16.9149680
  74.5915600  39.9396610  17.2543390  76.0257100  40.1716640  17.6800930
  74.1105700  39.8867120   4.4113250  73.2069780  40.1497320   4.2364910
  74.5946320  40.1578290   3.6313210  76.6532910  38.9432660   2.3207630
  77.3624610  38.5215880   1.8354910  75.9372850  39.0107890   1.6890980
  75.9899260  34.2478180  11.2632900  76.6375450  33.6975560  10.8228060
  76.4101100  34.5021330  12.0848710  75.7431260  34.4033850  14.0058220
  75.3946080  34.8597670  14.7716400  75.4118960  33.5090980  14.0880650
  77.3495630  47.5753450  18.1711410  77.3065260  47.2046360  19.0525870
  77.4806640  48.5131020  18.3113230  81.0501660  49.1313040  13.7721130
  80.8093020  49.3987600  12.8851650  81.9904300  49.3018770  13.8271990
  83.2556080  35.5945730  17.5277640  83.1944970  36.1867560  18.2773050
  84.1956460  35.4871690  17.3827900  85.8930640  35.2515790  17.1669930
  86.5071050  35.5695080  16.5051010  86.4380200  34.7664380  17.7865790
  76.4151900  33.9310050  17.2808990  76.9634890  33.7498100  16.5175100
  76.4807210  33.1404160  17.8165300  77.1883660  50.5215700  15.2909190
  76.5943980  50.3900400  16.0299230  77.1807500  49.6853840  14.8251290
  86.6338680  33.8147930  13.4939220  85.7598520  34.1483040  13.2912150
  86.5249430  33.3421110  14.3191090  87.5410660  36.0218800  14.8780940
  87.2124020  35.2070560  14.4982670  88.4892960  35.9788610  14.7546630
  76.8195890  47.8874080  14.2417230  76.0929950  47.2679370  14.1743180
  76.8805040  48.2814690  13.3715310  80.4240990  50.1019080  11.0266640
  80.9406010  49.4906440  10.5014900  81.0738370  50.6047860  11.5177650
  83.1636490  50.9927570  11.8535620  83.4514300  50.7381870  10.9768630
  83.6759710  50.4404930  12.4441190  84.3813500  34.7317770  12.4332130
  83.5985290  35.2063270  12.7128890  84.0876430  33.8272600  12.3245310
  88.9334570  35.4340870  10.4781220  89.3742660  35.3785970   9.6302820
  88.6642160  36.3498880  10.5491400  75.1025890  51.2048470   7.4513990
  74.9347930  50.5719150   8.1495880  74.2360400  51.4107870   7.1008180
  75.7253910  35.0365250   4.9545850  76.4833270  35.1494130   4.3809880
  75.2631080  35.8734450   4.9089280  82.2667720  37.1504520   7.9448160
  81.4542230  36.7761410   7.6044040  82.7709360  36.3949600   8.2469350
  86.7692700  33.8146970   9.1831230  87.3722070  34.3867180   9.6579750
  86.0285690  34.3786410   8.9605130  76.7088590  49.8981700   4.8964130
  76.1836210  50.2789730   4.1926090  76.6333170  50.5232470   5.6173840
  78.0979060  35.5629300   3.4947820  78.6271820  34.7759100   3.3655770
  78.7307380  36.2420490   3.7283350  80.2916900  35.3004440   6.5493210
  79.6619640  34.5991750   6.7163340  79.7522040  36.0608570   6.3326370
  83.2308850  51.9143670  19.2203820  84.1576160  51.6787940  19.2639780
  83.2159280  52.7415670  18.7389850  80.4172460  34.5788420  18.9845700
  80.1356730  35.0822020  18.2206520  80.7992160  33.7810170  18.6187830
  79.3081560  51.8464080   3.7713380  80.0400380  51.5623360   3.2237270
  79.5675230  51.6077360   4.6612760  78.4696350  47.9628810   3.7759710
  77.8405230  48.4313910   4.3245540  78.5844180  47.1178030   4.2105900
  87.0187920  33.9942000  19.5626170  86.9053370  34.3136610  20.4577690
  87.8357660  34.3954510  19.2663450  85.9246070  23.2390980  83.7978360
  85.8440120  22.3245590  83.5270070  85.5110490  23.7358050  83.0918070
  84.0564110  25.0170000  85.6787630  83.2806210  24.5370440  85.9686200
  84.7077040  24.3375650  85.5043790  78.0729940  25.3289810  86.5563390
  77.2414820  25.0738520  86.9559900  78.6810920  25.4000580  87.2921310
  88.0771540  29.4230190  84.4586760  87.6153070  28.6517430  84.7873930
  88.8897090  29.4496260  84.9639210  78.0531200  29.3629900  86.7521410
  78.3559240  28.4727640  86.5731630  78.7974790  29.9200120  86.5243660
  76.4821890  20.2891700  80.3405780  75.5938590  20.6307670  80.2385660
  76.7663080  20.0892020  79.4486610  74.4454900  22.8897350  86.2245480
  75.0171010  22.1219550  86.2249120  74.4456440  23.1886110  85.3152090
  84.3034850  31.7088200  84.0790750  83.6846290  32.1645700  83.5085190
  85.1586630  31.8639660  83.6780450  83.4973100  27.6927190  85.6857790
  83.4281380  26.7517130  85.5246920  84.2592960  27.7828600  86.2580360
  75.6879770  18.2981710  88.0114410  75.5082610  17.4007460  88.2917170
  75.2859850  18.8453580  88.6861360  84.5278270  20.4997570  85.9126720
  84.9043090  19.6269450  85.8000390  84.4297780  20.8356270  85.0217160
  78.6583280  18.8723200  81.3744160  78.7650030  19.7726930  81.6812920
  77.7475640  18.8241170  81.0838810  88.3102390  17.9948010  82.8455060
  89.1312010  17.5044580  82.8880540  88.3436470  18.5845670  83.5986900
  76.3066440  20.7942210  86.6196750  76.9876550  21.0580580  87.2384150
  75.9914490  19.9543080  86.9534760  80.4991010  21.8409570  85.7069340
  81.0069230  22.3390540  86.3474360  81.0304250  21.0644770  85.5308700
  78.7827110  16.4808130  89.9732760  78.7845550  16.9980520  89.1678660
  77.9531420  16.0038310  89.9502690  85.1698200  26.5927440  81.4722660
  84.5515470  27.0576890  80.9085380  85.6821450  27.2854920  81.8892170
  80.0329960  26.1203310  88.1506260  79.6999340  26.7472230  88.7927330
  80.2096640  26.6465190  87.3707930  88.5463870  19.9348390  85.6182600
  87.8419440  20.2233280  86.1985710  88.9076030  20.7448500  85.2582160
  78.4642440  18.1918090  87.9803210  78.8059250  19.0360140  87.6857080
  77.5258250  18.3401830  88.0968550  79.2449060  28.0884110  89.9655440
  79.8623060  28.7635190  89.6839890  78.3842180  28.4972090  89.8742940
  74.5381400  27.2783970  78.8462290  74.1609380  27.7671070  78.1147190
  74.7954470  27.9509250  79.4768820  82.1470330  15.6800360  84.3047800
  82.4545310  15.1247250  83.5883300  81.2171030  15.8144820  84.1220790
  87.6985390  31.3967650  86.5955260  87.7112550  30.9929940  85.7277520
  87.1460610  32.1714940  86.4916690  88.9930810  28.1183870  81.6845430
  88.8827140  27.1758200  81.8094850  88.9899060  28.4799510  82.5708190
  87.0970830  26.2997490  87.9237870  87.5139620  26.0857600  87.0891330
  87.8210650  26.5570280  88.4946490  84.5351090  23.7449190  81.0407920
  83.6080370  23.6786570  81.2696390  84.6875910  24.6829320  80.9263160
  84.5220170  20.0166190  78.0375080  83.5823840  20.1780150  78.1227540
  84.8403430  20.7351870  77.4911070  88.5648380  25.3069490  81.5443170
  87.9460800  24.9689040  80.8969470  88.5472830  24.6629250  82.2522360
  88.0074940  21.4854030  88.9608980  87.5946120  22.3107740  89.2148970
  87.2750890  20.8999070  88.7685340  80.1407730  24.2713930  83.8227650
  79.7364730  23.5591180  83.3273550  80.2270850  23.9267170  84.7115690
  80.6089430  27.9581490  85.9866860  80.3117720  27.3526960  85.3074640
  81.5589250  27.9958800  85.8756220  78.8536350  21.0457140  87.6026690
  79.4050940  21.1552480  86.8279940  79.3679860  21.4194740  88.3181920
  88.6975040  31.5313360  89.6489960  88.2205600  32.3385550  89.4562570
  88.0136830  30.8791690  89.8016170  79.7007860  27.6963180  92.6374660
  78.8036390  27.9203150  92.8848060  79.7260730  27.8198120  91.6886060
  86.7413080  24.5456300  78.5515920  87.1806360  23.7078730  78.4053740
  87.4541500  25.1785700  78.6380060  78.5279080  24.5676500  91.2132030
  78.3886850  25.4399300  91.5819430  77.6460440  24.2249310  91.0679970
  84.8508460  29.4852370  82.5197160  85.2904370  30.2276700  82.1052550
  84.7895350  29.7278940  83.4436120  80.3259430  30.5098200  93.4217180
  80.2974860  30.9141150  92.5545610  80.1624400  29.5808560  93.2588780
  76.8412360  23.1658910  81.3234300  76.7209960  23.8921000  80.7115570
  76.5313250  22.3961820  80.8462210  74.4797730  26.3374050  87.1302940
  74.5578150  26.4722820  86.1858660  75.0939410  25.6289940  87.3231060
  75.7245360  28.0374240  83.5409120  75.3173440  28.1788830  82.6862720
  76.6158370  27.7534400  83.3380330  85.5424240  32.1866150  90.4476170
  86.0568910  32.0974160  91.2498600  84.6993320  32.5325850  90.7404080
  87.5178640  32.4721490  79.8760170  87.3579780  32.1824430  80.7742000
  87.3525350  31.6961620  79.3405400  79.9967020  32.2520020  81.6531790
  79.8209500  31.3355560  81.4399590  79.1422760  32.6107310  81.8929590
  87.2204770  29.9809050  78.4358170  86.5269930  29.9786340  77.7760450
  87.9627630  29.5568370  78.0052340  86.7854700  31.6071760  82.5106660
  87.2411650  30.8261140  82.8245280  87.1247220  32.3178580  83.0547840
  74.5357250  27.3788220  89.6697400  74.6988290  26.9093580  88.8516770
  75.0009700  26.8711780  90.3346240  79.3076020  16.5093980  84.7057970
  78.8644170  17.2903520  84.3742490  79.8661010  16.8323870  85.4128910
  83.5945830  19.3762500  90.3093290  83.1325200  19.5845520  91.1213230
  83.1923940  18.5621850  90.0063960  88.5950340  20.5971450  91.4389950
  87.7443930  20.2977200  91.7599020  88.4352130  20.8413460  90.5273770
  85.6900050  22.0973200  93.5388740  86.0153460  21.2636950  93.1990970
  86.4780380  22.6201720  93.6867070  82.4234840  16.1304680  79.5863800
  81.7989020  16.1264550  80.3117110  82.3364960  15.2635640  79.1899770
  81.3451920  17.0541310  86.5647570  81.6424250  17.9604140  86.4839590
  81.8937480  16.5660090  85.9507140  79.0990240  21.6327550  82.4339220
  78.8731160  21.4164720  83.3385840  78.3182770  22.0656010  82.0885190
  86.3288000  21.6390920  81.0329870  85.7296890  22.3626720  80.8493490
  86.8767610  21.5767700  80.2506320  81.5389450  22.5313130  93.0999490
  81.4433050  21.5907860  92.9499890  82.3821430  22.7528200  92.7047560
  84.9352870  20.2754460  83.0633150  85.3282440  20.5926660  82.2501840
  85.2969720  19.3966340  83.1777670  76.6699990  18.9426800  91.2533270
  76.2763380  19.7902010  91.4606050  75.9818390  18.3053170  91.4441910
  73.9717040  16.8655260  85.2863350  73.6830090  17.4358120  85.9988330
  74.7162800  16.3859710  85.6494580  74.1587270  20.8075380  76.4966070
  74.0761940  21.7506140  76.6381060  73.8070330  20.6650290  75.6178420
  85.5208010  22.8660210  87.1583930  84.7889130  23.3747020  87.5074030
  85.1232350  22.0490190  86.8572710  81.9585400  19.5414410  85.5636420
  81.9621460  19.1004360  84.7140960  82.8536520  19.8631740  85.6708240
  77.8087780  19.4240900  84.5230630  77.4687830  19.9016130  85.2797680
  77.0465100  18.9706020  84.1631730  82.0205550  20.5426490  78.5543180
  82.1418370  20.5012970  79.5029000  81.6354060  21.4050640  78.3989910
  85.9833920  18.3193890  86.5706870  86.0006660  18.7702540  87.4148720
  85.7349500  17.4199530  86.7840310  81.0327050  22.8527630  77.9526480
  80.4643950  22.4045880  77.3262390  81.7416050  23.2120410  77.4191630
  89.4104670  15.7326070  92.4093250  89.7350440  15.0015730  92.9351230
  89.4461180  15.4139710  91.5074240  76.1096230  26.7539650  91.8293210
  75.7251020  26.1133320  92.4276170  76.4208420  27.4575770  92.3987940
  82.2593370  23.6016190  87.3101830  82.6263500  23.1274760  88.0563170
  82.0698430  24.4757760  87.6510170  75.1233860  18.3459880  83.4395300
  74.8380780  17.9815550  84.2773920  75.0612720  17.6140340  82.8258440
  80.0492740  22.6424830  89.6286040  79.7449810  23.5216810  89.8536400
  81.0039200  22.7024620  89.6643480  78.5774530  26.8485820  80.2252890
  77.8036790  26.3083440  80.0651610  79.3069160  26.3292430  79.8870650
  84.7972450  17.2389140  80.1608670  83.9837060  16.7402310  80.0853980
  84.6034400  18.0787390  79.7445020  84.7181310  25.9160240  91.9048280
  84.6518620  24.9955910  91.6505870  84.0886450  26.0135680  92.6192920
  87.5120840  21.6108790  78.4570830  88.4000460  21.9226020  78.2822170
  87.4825930  20.7381040  78.0651410  78.6211930  26.5166200  83.8631700
  79.1390600  25.7134460  83.8088590  78.1695950  26.4545340  84.7048530
  83.5081430  27.7832480  79.1359000  83.8497130  28.5274710  78.6402320
  82.6794140  28.0963600  79.4983830  76.1056470  23.4827570  90.7757400
  75.7471410  24.1481420  91.3630740  75.8111030  22.6511120  91.1470020
  79.3069590  23.9411810  93.6596950  79.0069730  24.0868990  92.7624770
  80.0780830  23.3817100  93.5670340  84.6498040  28.7380810  91.6552080
  84.6642580  27.8061770  91.4370990  83.9423140  28.8240570  92.2941850
  86.3908840  27.1048320  84.5004510  86.7432660  26.5076450  83.8405880
  85.5071170  26.7792550  84.6712760  82.4772120  27.8646010  81.9074920
  83.1643250  28.4115220  82.2882510  81.6904540  28.4086740  81.9424530
  74.6164520  23.4818830  77.3992000  75.4859370  23.7643630  77.6827920
  74.1254840  24.2954700  77.2840810  81.7799330  24.8692040  81.5200280
  82.2362110  25.6797290  81.7460470  81.4287540  24.5515180  82.3518770
  84.0831940  30.3798380  88.7492580  84.7274160  30.5857760  89.4266000
  84.4461380  29.6186780  88.2963430  77.6811110  15.2129690  81.9922800
  77.5525740  15.2047590  82.9407720  76.8573130  15.5512780  81.6413810
  85.3564020  28.3830730  87.4670030  85.9986250  27.6823890  87.5802200
  85.8813370  29.1629170  87.2866920  89.2019740  28.6679350  77.1909170
  88.9757320  27.9509790  77.7833810  88.8115940  28.4191790  76.3530920
  87.1301640  29.1825630  90.6706090  87.4657880  29.7692320  91.3484010
  86.2101980  29.0518340  90.9003880  74.9835770  32.6946210  77.9653630
  75.3433410  33.2935550  77.3110900  74.8428110  33.2406100  78.7388660
  74.6805040  16.9720810  91.4529500  73.9663560  17.1717730  92.0582110
  75.1000080  16.1960380  91.8244300  88.7835990  26.5851290  78.8523330
  88.4957690  27.0463980  79.6401210  89.5788160  26.1249060  79.1207550
  74.9677630  30.9601070  92.4396030  75.0768750  30.0195810  92.2991420
  74.3158190  31.2255820  91.7909760  81.0004390  30.0777410  78.7827300
  80.9914490  30.8107100  78.1671810  80.0802750  29.8308990  78.8754260
  76.6011030  25.2992300  79.5274060  75.9938980  26.0391200  79.5369360
  77.0760380  25.3891660  78.7012260  86.1743820  19.4643120  89.2030950
  86.5424640  18.6438330  89.5310520  85.3142020  19.5245010  89.6186600
  89.5405850  18.4200060  80.0118510  88.9119010  18.5245730  79.2976740
  89.0457770  18.6396840  80.8012390  83.9863990  30.1405650  77.4452490
  84.0875970  29.9369640  76.5154470  83.0865730  29.8863930  77.6500270
  81.5089880  20.6986010  81.4276390  80.8006030  21.1672350  81.8690000
  81.7934360  20.0408020  82.0621580  83.1345810  22.1182710  89.4268920
  83.6331060  22.5928530  90.0920770  83.2768760  21.1946230  89.6338950
  85.5405310  17.4236670  82.8672180  85.4173090  17.4422800  81.9181690
  86.4889870  17.4715610  82.9870580  82.6282100  32.6591970  82.1400160
  82.8823600  32.6213360  81.2179530  81.6794580  32.5325300  82.1328410
  79.7124900  19.0071090  78.8027100  80.5615430  19.4441240  78.7367290
  79.3456170  19.3191350  79.6299160  88.6334680  23.5783850  83.7158670
  87.6924820  23.5934080  83.8906360  88.9478750  22.7919810  84.1618970
  78.6116320  25.2603450  77.2762630  79.3779590  25.1484810  77.8388060
  78.6891010  24.5641420  76.6239400  77.3063080  22.6928520  77.9595520
  77.3866670  21.7456030  78.0712920  78.1982830  23.0235400  78.0656180
  78.1077790  32.8423910  85.0630060  78.8440270  32.2939370  85.3338630
  78.4918710  33.7079920  84.9236050  74.9923270  28.9097480  80.9371570
  74.0663050  29.1518620  80.9276980  75.4579700  29.7371740  80.8156320
  81.2180100  32.0154220  76.8855630  82.0108710  32.3043050  76.4337420
  80.6984450  31.5846390  76.2068110  87.3801070  31.8630140  92.8100460
  88.3322820  31.7788160  92.7600700  87.2329290  32.5271850  93.4834250
  74.8333880  24.5143440  93.1951690  75.3372900  23.9350720  93.7667920
  74.0941300  24.7983670  93.7328060  81.7357500  27.2357630  76.7497980
  81.6308140  26.6209980  77.4759360  81.5681720  26.7123520  75.9660990
  81.8871820  25.9214430  92.7287210  81.1217490  26.4899430  92.6441880
  82.0687780  25.6290640  91.8355440  84.9760230  26.2977660  77.3539970
  84.4270330  26.7446960  77.9982710  85.5979490  25.7926910  77.8777640
  89.0295170  27.6519760  93.2862230  89.7704640  27.9895520  92.7829690
  88.2667850  27.8211820  92.7332000  80.6435350  25.2568580  79.2505270
  81.0651770  25.0908450  80.0936660  80.7686190  24.4468810  78.7560410
  78.8062770  21.2365130  92.0576250  78.2759230  20.7456080  91.4299590
  79.4750840  21.6649330  91.5234180  83.1562990  24.2806190  76.4982370
  83.6768650  23.5655210  76.1323520  83.8031390  24.9192060  76.7982880
  87.7040830  25.7034590  91.8217440  88.1181850  25.8579670  92.6707860
  86.7691830  25.8289810  91.9843220  88.1763000  23.0430750  93.8256590
  88.7583770  22.2883070  93.7377070  88.3524770  23.5738190  93.0488070
  79.2935070  18.2027500  92.1373540  79.1991940  17.5848250  91.4124410
  78.7132460  18.9293790  91.9103450  82.0596510  16.7600740  89.1700930
  81.6113810  16.7825000  88.3246480  81.4261710  16.3619760  89.7671230
  82.4656060  25.6555070  89.7913370  82.8844170  26.4987800  89.6189610
  81.5464690  25.7927110  89.5620150  84.8019960  23.3871250  91.1751210
  84.9216170  22.7912390  91.9146050  85.6613960  23.4240940  90.7552510
  87.1407860  23.9408440  89.7513720  86.6143080  24.4651060  89.1478860
  87.4839200  24.5735830  90.3823450  79.5394250  21.3301810  76.1963430
  79.3383310  20.4669170  76.5576770  79.3686300  21.2435170  75.2585030
  80.3163480  31.9608080  90.9071100  79.7784570  32.6854140  90.5879800
  80.5697440  31.4838420  90.1168440  81.5688730  19.9292600  92.4327030
  82.1588420  19.6208450  93.1204850  80.7508970  19.4572350  92.5886930
  86.3882160  19.5458410  92.6660050  85.6997680  18.8839950  92.6010040
  87.1088180  19.0996680  93.1108510  87.0182560  16.1410040  78.7250310
  87.2984850  15.2977940  79.0809730  86.2448290  16.3733150  79.2389060
  78.3377050  18.4302430  76.1841310  78.6402950  18.4369860  75.2760460
  79.0771640  18.0800290  76.6808970  83.1725690  33.1959290  91.1657750
  83.0984390  34.0994430  91.4730120  82.2704530  32.8771190  91.1379820
  81.5561980  17.3737050  77.1697510  81.2083980  16.6961040  76.5899960
  81.7574750  16.9126560  77.9840900  83.7211020  32.3617800  78.7884110
  84.6161810  32.7002770  78.8102870  83.7528650  31.6397210  78.1608390
  77.3607180  27.7344850  77.0171110  77.7982050  28.2774520  77.6728690
  77.8454910  26.9091800  77.0267450  74.5752980  30.5233880  84.4691370
  74.9055990  29.6554940  84.2370010  75.0043980  30.7292400  85.2996330
  79.1714900  28.8542890  82.1293340  78.8710440  28.7307860  83.0297250
  79.0652390  27.9951480  81.7209070  75.0643190  31.3904470  87.2073000
  74.6274180  31.5705270  88.0397150  75.6320870  32.1479090  87.0654720
  74.8967620  23.9024700  83.5661880  74.2416460  23.6336340  82.9221580
  75.7345570  23.7929180  83.1163860  89.3857010  27.6173450  89.5926470
  88.5716850  28.0470610  89.8552260  89.7931210  28.2291860  88.9795520
  87.8458060  18.6965990  77.7880370  88.2642940  18.5096970  76.9477030
  87.5394120  17.8445040  78.0983300  75.9343550  24.2877270  88.1065220
  76.3016590  24.2004670  88.9861240  75.3654370  23.5243820  88.0072080
  75.4859550  21.1986360  92.0123640  74.5915600  21.1653120  92.3517350
  76.0257100  21.3973150  92.7774890  74.1105700  21.1123630  79.5087210
  73.2069780  21.3753830  79.3338870  74.5946320  21.3834800  78.7287170
  76.6532910  20.1689170  77.4181590  77.3624610  19.7472390  76.9328870
  75.9372850  20.2364400  76.7864940  76.3007070  16.2228500  76.4584240
  77.0235200  16.7637440  76.7765460  76.5731590  15.9491920  75.5825780
  75.9899260  15.4734690  86.3606860  76.6375450  14.9232070  85.9202020
  76.4101100  15.7277840  87.1822670  75.7431260  15.6290360  89.1032180
  75.3946080  16.0854180  89.8690360  75.4118960  14.7347490  89.1854610
  81.0501660  30.3569550  88.8695090  80.8093020  30.6244110  87.9825610
  81.9904300  30.5275280  88.9245950  83.2556080  16.8202240  92.6251600
  83.1944970  17.4124070  93.3747010  84.1956460  16.7128200  92.4801860
  85.8930640  16.4772300  92.2643890  86.5071050  16.7951590  91.6024970
  86.4380200  15.9920890  92.8839750  76.4151900  15.1566560  92.3782950
  76.9634890  14.9754610  91.6149060  76.4807210  14.3660670  92.9139260
  77.1883660  31.7472210  90.3883150  76.5943980  31.6156910  91.1273190
  77.1807500  30.9110350  89.9225250  86.6338680  15.0404440  88.5913180
  85.7598520  15.3739550  88.3886110  86.5249430  14.5677620  89.4165050
  87.5410660  17.2475310  89.9754900  87.2124020  16.4327070  89.5956630
  88.4892960  17.2045120  89.8520590  76.8195890  29.1130590  89.3391190
  76.0929950  28.4935880  89.2717140  76.8805040  29.5071200  88.4689270
  80.4240990  31.3275590  86.1240600  80.9406010  30.7162950  85.5988860
  81.0738370  31.8304370  86.6151610  83.1636490  32.2184080  86.9509580
  83.4514300  31.9638380  86.0742590  83.6759710  31.6661440  87.5415150
  84.3813500  15.9574280  87.5306090  83.5985290  16.4319780  87.8102850
  84.0876430  15.0529110  87.4219270  88.9334570  16.6597380  85.5755180
  89.3742660  16.6042480  84.7276780  88.6642160  17.5755390  85.6465360
  75.1025890  32.4304980  82.5487950  74.9347930  31.7975660  83.2469840
  74.2360400  32.6364380  82.1982140  75.7253910  16.2621760  80.0519810
  76.4833270  16.3750640  79.4783840  75.2631080  17.0990960  80.0063240
  82.2667720  18.3761030  83.0422120  81.4542230  18.0017920  82.7018000
  82.7709360  17.6206110  83.3443310  86.7692700  15.0403480  84.2805190
  87.3722070  15.6123690  84.7553710  86.0285690  15.6042920  84.0579090
  76.7088590  31.1238210  79.9938090  76.1836210  31.5046240  79.2900050
  76.6333170  31.7488980  80.7147800  78.0979060  16.7885810  78.5921780
  78.6271820  16.0015610  78.4629730  78.7307380  17.4677000  78.8257310
  80.2916900  16.5260950  81.6467170  79.6619640  15.8248260  81.8137300
  79.7522040  17.2865080  81.4300330  79.3081560  33.0720590  78.8687340
  80.0400380  32.7879870  78.3211230  79.5675230  32.8333870  79.7586720
  78.4696350  29.1885320  78.8733670  77.8405230  29.6570420  79.4219500
  78.5844180  28.3434540  79.3079860  85.9246070  23.2390980  65.0234870
  85.8440120  22.3245590  64.7526580  85.5110490  23.7358050  64.3174580
  84.0564110  25.0170000  66.9044140  83.2806210  24.5370440  67.1942710
  84.7077040  24.3375650  66.7300300  78.0729940  25.3289810  67.7819900
  77.2414820  25.0738520  68.1816410  78.6810920  25.4000580  68.5177820
  88.0771540  29.4230190  65.6843270  87.6153070  28.6517430  66.0130440
  88.8897090  29.4496260  66.1895720  78.0531200  29.3629900  67.9777920
  78.3559240  28.4727640  67.7988140  78.7974790  29.9200120  67.7500170
  76.4821890  20.2891700  61.5662290  75.5938590  20.6307670  61.4642170
  76.7663080  20.0892020  60.6743120  74.4454900  22.8897350  67.4501990
  75.0171010  22.1219550  67.4505630  74.4456440  23.1886110  66.5408600
  84.3034850  31.7088200  65.3047260  83.6846290  32.1645700  64.7341700
  85.1586630  31.8639660  64.9036960  83.4973100  27.6927190  66.9114300
  83.4281380  26.7517130  66.7503430  84.2592960  27.7828600  67.4836870
  75.6879770  18.2981710  69.2370920  75.5082610  17.4007460  69.5173680
  75.2859850  18.8453580  69.9117870  84.5278270  20.4997570  67.1383230
  84.9043090  19.6269450  67.0256900  84.4297780  20.8356270  66.2473670
  78.6583280  18.8723200  62.6000670  78.7650030  19.7726930  62.9069430
  77.7475640  18.8241170  62.3095320  88.3102390  17.9948010  64.0711570
  89.1312010  17.5044580  64.1137050  88.3436470  18.5845670  64.8243410
  76.3066440  20.7942210  67.8453260  76.9876550  21.0580580  68.4640660
  75.9914490  19.9543080  68.1791270  80.4991010  21.8409570  66.9325850
  81.0069230  22.3390540  67.5730870  81.0304250  21.0644770  66.7565210
  78.7827110  16.4808130  71.1989270  78.7845550  16.9980520  70.3935170
  77.9531420  16.0038310  71.1759200  85.1698200  26.5927440  62.6979170
  84.5515470  27.0576890  62.1341890  85.6821450  27.2854920  63.1148680
  80.0329960  26.1203310  69.3762770  79.6999340  26.7472230  70.0183840
  80.2096640  26.6465190  68.5964440  88.5463870  19.9348390  66.8439110
  87.8419440  20.2233280  67.4242220  88.9076030  20.7448500  66.4838670
  78.4642440  18.1918090  69.2059720  78.8059250  19.0360140  68.9113590
  77.5258250  18.3401830  69.3225060  79.2449060  28.0884110  71.1911950
  79.8623060  28.7635190  70.9096400  78.3842180  28.4972090  71.0999450
  74.5381400  27.2783970  60.0718800  74.1609380  27.7671070  59.3403700
  74.7954470  27.9509250  60.7025330  82.1470330  15.6800360  65.5304310
  82.4545310  15.1247250  64.8139810  81.2171030  15.8144820  65.3477300
  87.6985390  31.3967650  67.8211770  87.7112550  30.9929940  66.9534030
  87.1460610  32.1714940  67.7173200  88.9930810  28.1183870  62.9101940
  88.8827140  27.1758200  63.0351360  88.9899060  28.4799510  63.7964700
  87.0970830  26.2997490  69.1494380  87.5139620  26.0857600  68.3147840
  87.8210650  26.5570280  69.7203000  84.5351090  23.7449190  62.2664430
  83.6080370  23.6786570  62.4952900  84.6875910  24.6829320  62.1519670
  84.5220170  20.0166190  59.2631590  83.5823840  20.1780150  59.3484050
  84.8403430  20.7351870  58.7167580  88.5648380  25.3069490  62.7699680
  87.9460800  24.9689040  62.1225980  88.5472830  24.6629250  63.4778870
  88.0074940  21.4854030  70.1865490  87.5946120  22.3107740  70.4405480
  87.2750890  20.8999070  69.9941850  80.1407730  24.2713930  65.0484160
  79.7364730  23.5591180  64.5530060  80.2270850  23.9267170  65.9372200
  80.6089430  27.9581490  67.2123370  80.3117720  27.3526960  66.5331150
  81.5589250  27.9958800  67.1012730  78.8536350  21.0457140  68.8283200
  79.4050940  21.1552480  68.0536450  79.3679860  21.4194740  69.5438430
  88.6975040  31.5313360  70.8746470  88.2205600  32.3385550  70.6819080
  88.0136830  30.8791690  71.0272680  79.7007860  27.6963180  73.8631170
  78.8036390  27.9203150  74.1104570  79.7260730  27.8198120  72.9142570
  86.7413080  24.5456300  59.7772430  87.1806360  23.7078730  59.6310250
  87.4541500  25.1785700  59.8636570  78.5279080  24.5676500  72.4388540
  78.3886850  25.4399300  72.8075940  77.6460440  24.2249310  72.2936480
  84.8508460  29.4852370  63.7453670  85.2904370  30.2276700  63.3309060
  84.7895350  29.7278940  64.6692630  80.3259430  30.5098200  74.6473690
  80.2974860  30.9141150  73.7802120  80.1624400  29.5808560  74.4845290
  76.8412360  23.1658910  62.5490810  76.7209960  23.8921000  61.9372080
  76.5313250  22.3961820  62.0718720  74.4797730  26.3374050  68.3559450
  74.5578150  26.4722820  67.4115170  75.0939410  25.6289940  68.5487570
  75.7245360  28.0374240  64.7665630  75.3173440  28.1788830  63.9119230
  76.6158370  27.7534400  64.5636840  85.5424240  32.1866150  71.6732680
  86.0568910  32.0974160  72.4755110  84.6993320  32.5325850  71.9660590
  87.5178640  32.4721490  61.1016680  87.3579780  32.1824430  61.9998510
  87.3525350  31.6961620  60.5661910  79.9967020  32.2520020  62.8788300
  79.8209500  31.3355560  62.6656100  79.1422760  32.6107310  63.1186100
  87.2204770  29.9809050  59.6614680  86.5269930  29.9786340  59.0016960
  87.9627630  29.5568370  59.2308850  86.7854700  31.6071760  63.7363170
  87.2411650  30.8261140  64.0501790  87.1247220  32.3178580  64.2804350
  74.5357250  27.3788220  70.8953910  74.6988290  26.9093580  70.0773280
  75.0009700  26.8711780  71.5602750  79.3076020  16.5093980  65.9314480
  78.8644170  17.2903520  65.5999000  79.8661010  16.8323870  66.6385420
  83.5945830  19.3762500  71.5349800  83.1325200  19.5845520  72.3469740
  83.1923940  18.5621850  71.2320470  88.5950340  20.5971450  72.6646460
  87.7443930  20.2977200  72.9855530  88.4352130  20.8413460  71.7530280
  85.6900050  22.0973200  74.7645250  86.0153460  21.2636950  74.4247480
  86.4780380  22.6201720  74.9123580  82.4234840  16.1304680  60.8120310
  81.7989020  16.1264550  61.5373620  82.3364960  15.2635640  60.4156280
  81.3451920  17.0541310  67.7904080  81.6424250  17.9604140  67.7096100
  81.8937480  16.5660090  67.1763650  79.0990240  21.6327550  63.6595730
  78.8731160  21.4164720  64.5642350  78.3182770  22.0656010  63.3141700
  86.3288000  21.6390920  62.2586380  85.7296890  22.3626720  62.0750000
  86.8767610  21.5767700  61.4762830  81.5389450  22.5313130  74.3256000
  81.4433050  21.5907860  74.1756400  82.3821430  22.7528200  73.9304070
  84.9352870  20.2754460  64.2889660  85.3282440  20.5926660  63.4758350
  85.2969720  19.3966340  64.4034180  76.6699990  18.9426800  72.4789780
  76.2763380  19.7902010  72.6862560  75.9818390  18.3053170  72.6698420
  83.2445040  19.0261770  75.5486520  82.5543360  18.8333970  76.1832610
  83.9877340  19.3096410  76.0810820  73.9717040  16.8655260  66.5119860
  73.6830090  17.4358120  67.2244840  74.7162800  16.3859710  66.8751090
  74.1587270  20.8075380  57.7222580  74.0761940  21.7506140  57.8637570
  73.8070330  20.6650290  56.8434930  85.5208010  22.8660210  68.3840440
  84.7889130  23.3747020  68.7330540  85.1232350  22.0490190  68.0829220
  81.9585400  19.5414410  66.7892930  81.9621460  19.1004360  65.9397470
  82.8536520  19.8631740  66.8964750  77.8087780  19.4240900  65.7487140
  77.4687830  19.9016130  66.5054190  77.0465100  18.9706020  65.3888240
  82.0205550  20.5426490  59.7799690  82.1418370  20.5012970  60.7285510
  81.6354060  21.4050640  59.6246420  85.9833920  18.3193890  67.7963380
  86.0006660  18.7702540  68.6405230  85.7349500  17.4199530  68.0096820
  81.0327050  22.8527630  59.1782990  80.4643950  22.4045880  58.5518900
  81.7416050  23.2120410  58.6448140  89.4104670  15.7326070  73.6349760
  89.7350440  15.0015730  74.1607740  89.4461180  15.4139710  72.7330750
  76.1096230  26.7539650  73.0549720  75.7251020  26.1133320  73.6532680
  76.4208420  27.4575770  73.6244450  82.2593370  23.6016190  68.5358340
  82.6263500  23.1274760  69.2819680  82.0698430  24.4757760  68.8766680
  75.1233860  18.3459880  64.6651810  74.8380780  17.9815550  65.5030430
  75.0612720  17.6140340  64.0514950  80.0492740  22.6424830  70.8542550
  79.7449810  23.5216810  71.0792910  81.0039200  22.7024620  70.8899990
  78.5774530  26.8485820  61.4509400  77.8036790  26.3083440  61.2908120
  79.3069160  26.3292430  61.1127160  84.7972450  17.2389140  61.3865180
  83.9837060  16.7402310  61.3110490  84.6034400  18.0787390  60.9701530
  84.7181310  25.9160240  73.1304790  84.6518620  24.9955910  72.8762380
  84.0886450  26.0135680  73.8449430  87.5120840  21.6108790  59.6827340
  88.4000460  21.9226020  59.5078680  87.4825930  20.7381040  59.2907920
  78.6211930  26.5166200  65.0888210  79.1390600  25.7134460  65.0345100
  78.1695950  26.4545340  65.9305040  83.5081430  27.7832480  60.3615510
  83.8497130  28.5274710  59.8658830  82.6794140  28.0963600  60.7240340
  76.1056470  23.4827570  72.0013910  75.7471410  24.1481420  72.5887250
  75.8111030  22.6511120  72.3726530  79.3069590  23.9411810  74.8853460
  79.0069730  24.0868990  73.9881280  80.0780830  23.3817100  74.7926850
  84.6498040  28.7380810  72.8808590  84.6642580  27.8061770  72.6627500
  83.9423140  28.8240570  73.5198360  86.3908840  27.1048320  65.7261020
  86.7432660  26.5076450  65.0662390  85.5071170  26.7792550  65.8969270
  82.4772120  27.8646010  63.1331430  83.1643250  28.4115220  63.5139020
  81.6904540  28.4086740  63.1681040  74.6164520  23.4818830  58.6248510
  75.4859370  23.7643630  58.9084430  74.1254840  24.2954700  58.5097320
  81.7799330  24.8692040  62.7456790  82.2362110  25.6797290  62.9716980
  81.4287540  24.5515180  63.5775280  84.0831940  30.3798380  69.9749090
  84.7274160  30.5857760  70.6522510  84.4461380  29.6186780  69.5219940
  77.6811110  15.2129690  63.2179310  77.5525740  15.2047590  64.1664230
  76.8573130  15.5512780  62.8670320  85.3564020  28.3830730  68.6926540
  85.9986250  27.6823890  68.8058710  85.8813370  29.1629170  68.5123430
  89.2019740  28.6679350  58.4165680  88.9757320  27.9509790  59.0090320
  88.8115940  28.4191790  57.5787430  87.1301640  29.1825630  71.8962600
  87.4657880  29.7692320  72.5740520  86.2101980  29.0518340  72.1260390
  74.9835770  32.6946210  59.1910140  75.3433410  33.2935550  58.5367410
  74.8428110  33.2406100  59.9645170  74.6805040  16.9720810  72.6786010
  73.9663560  17.1717730  73.2838620  75.1000080  16.1960380  73.0500810
  88.7835990  26.5851290  60.0779840  88.4957690  27.0463980  60.8657720
  89.5788160  26.1249060  60.3464060  74.9677630  30.9601070  73.6652540
  75.0768750  30.0195810  73.5247930  74.3158190  31.2255820  73.0166270
  82.9590220  29.2316960  75.0650660  82.6387090  28.5126200  75.6096350
  82.2848580  29.9072030  75.1386720  81.0004390  30.0777410  60.0083810
  80.9914490  30.8107100  59.3928320  80.0802750  29.8308990  60.1010770
  76.6011030  25.2992300  60.7530570  75.9938980  26.0391200  60.7625870
  77.0760380  25.3891660  59.9268770  86.1743820  19.4643120  70.4287460
  86.5424640  18.6438330  70.7567030  85.3142020  19.5245010  70.8443110
  89.5405850  18.4200060  61.2375020  88.9119010  18.5245730  60.5233250
  89.0457770  18.6396840  62.0268900  83.9863990  30.1405650  58.6709000
  84.0875970  29.9369640  57.7410980  83.0865730  29.8863930  58.8756780
  81.5089880  20.6986010  62.6532900  80.8006030  21.1672350  63.0946510
  81.7934360  20.0408020  63.2878090  83.1345810  22.1182710  70.6525430
  83.6331060  22.5928530  71.3177280  83.2768760  21.1946230  70.8595460
  85.5405310  17.4236670  64.0928690  85.4173090  17.4422800  63.1438200
  86.4889870  17.4715610  64.2127090  82.6282100  32.6591970  63.3656670
  82.8823600  32.6213360  62.4436040  81.6794580  32.5325300  63.3584920
  79.7124900  19.0071090  60.0283610  80.5615430  19.4441240  59.9623800
  79.3456170  19.3191350  60.8555670  88.6334680  23.5783850  64.9415180
  87.6924820  23.5934080  65.1162870  88.9478750  22.7919810  65.3875480
  78.6116320  25.2603450  58.5019140  79.3779590  25.1484810  59.0644570
  78.6891010  24.5641420  57.8495910  77.3063080  22.6928520  59.1852030
  77.3866670  21.7456030  59.2969430  78.1982830  23.0235400  59.2912690
  78.1077790  32.8423910  66.2886570  78.8440270  32.2939370  66.5595140
  78.4918710  33.7079920  66.1492560  74.9923270  28.9097480  62.1628080
  74.0663050  29.1518620  62.1533490  75.4579700  29.7371740  62.0412830
  77.1136070  32.0269980  75.4772150  77.9148800  32.3482030  75.8907550
  76.5987890  31.6665560  76.1992060  81.2180100  32.0154220  58.1112140
  82.0108710  32.3043050  57.6593930  80.6984450  31.5846390  57.4324620
  85.9500700  28.1349850  75.4247560  85.3438860  28.1581450  74.6843310
  85.6454810  27.4032890  75.9614810  87.3801070  31.8630140  74.0356970
  88.3322820  31.7788160  73.9857210  87.2329290  32.5271850  74.7090760
  74.8333880  24.5143440  74.4208200  75.3372900  23.9350720  74.9924430
  74.0941300  24.7983670  74.9584570  81.7357500  27.2357630  57.9754490
  81.6308140  26.6209980  58.7015870  81.5681720  26.7123520  57.1917500
  81.8871820  25.9214430  73.9543720  81.1217490  26.4899430  73.8698390
  82.0687780  25.6290640  73.0611950  84.9760230  26.2977660  58.5796480
  84.4270330  26.7446960  59.2239220  85.5979490  25.7926910  59.1034150
  89.0295170  27.6519760  74.5118740  89.7704640  27.9895520  74.0086200
  88.2667850  27.8211820  73.9588510  76.8656960  22.6573030  75.3158270
  76.9062300  22.3586900  76.2243500  77.7202460  23.0580640  75.1565790
  80.6435350  25.2568580  60.4761780  81.0651770  25.0908450  61.3193170
  80.7686190  24.4468810  59.9816920  78.8062770  21.2365130  73.2832760
  78.2759230  20.7456080  72.6556100  79.4750840  21.6649330  72.7490690
  83.1562990  24.2806190  57.7238880  83.6768650  23.5655210  57.3580030
  83.8031390  24.9192060  58.0239390  87.7040830  25.7034590  73.0473950
  88.1181850  25.8579670  73.8964370  86.7691830  25.8289810  73.2099730
  88.1763000  23.0430750  75.0513100  88.7583770  22.2883070  74.9633580
  88.3524770  23.5738190  74.2744580  79.2935070  18.2027500  73.3630050
  79.1991940  17.5848250  72.6380920  78.7132460  18.9293790  73.1359960
  82.0596510  16.7600740  70.3957440  81.6113810  16.7825000  69.5502990
  81.4261710  16.3619760  70.9927740  82.4656060  25.6555070  71.0169880
  82.8844170  26.4987800  70.8446120  81.5464690  25.7927110  70.7876660
  84.8019960  23.3871250  72.4007720  84.9216170  22.7912390  73.1402560
  85.6613960  23.4240940  71.9809020  87.1407860  23.9408440  70.9770230
  86.6143080  24.4651060  70.3735370  87.4839200  24.5735830  71.6079960
  79.5394250  21.3301810  57.4219940  79.3383310  20.4669170  57.7833280
  79.3686300  21.2435170  56.4841540  80.3163480  31.9608080  72.1327610
  79.7784570  32.6854140  71.8136310  80.5697440  31.4838420  71.3424950
  81.5688730  19.9292600  73.6583540  82.1588420  19.6208450  74.3461360
  80.7508970  19.4572350  73.8143440  86.3882160  19.5458410  73.8916560
  85.6997680  18.8839950  73.8266550  87.1088180  19.0996680  74.3365020
  87.0182560  16.1410040  59.9506820  87.2984850  15.2977940  60.3066240
  86.2448290  16.3733150  60.4645570  78.3377050  18.4302430  57.4097820
  78.6402950  18.4369860  56.5016970  79.0771640  18.0800290  57.9065480
  83.1725690  33.1959290  72.3914260  83.0984390  34.0994430  72.6986630
  82.2704530  32.8771190  72.3636330  81.5561980  17.3737050  58.3954020
  81.2083980  16.6961040  57.8156470  81.7574750  16.9126560  59.2097410
  83.7211020  32.3617800  60.0140620  84.6161810  32.7002770  60.0359380
  83.7528650  31.6397210  59.3864900  77.3607180  27.7344850  58.2427620
  77.7982050  28.2774520  58.8985200  77.8454910  26.9091800  58.2523960
  74.5752980  30.5233880  65.6947880  74.9055990  29.6554940  65.4626520
  75.0043980  30.7292400  66.5252840  79.1714900  28.8542890  63.3549850
  78.8710440  28.7307860  64.2553760  79.0652390  27.9951480  62.9465580
  75.0643190  31.3904470  68.4329510  74.6274180  31.5705270  69.2653660
  75.6320870  32.1479090  68.2911230  74.8967620  23.9024700  64.7918390
  74.2416460  23.6336340  64.1478090  75.7345570  23.7929180  64.3420370
  89.3857010  27.6173450  70.8182980  88.5716850  28.0470610  71.0808770
  89.7931210  28.2291860  70.2052030  87.8458060  18.6965990  59.0136880
  88.2642940  18.5096970  58.1733540  87.5394120  17.8445040  59.3239810
  75.9343550  24.2877270  69.3321730  76.3016590  24.2004670  70.2117750
  75.3654370  23.5243820  69.2328590  75.4859550  21.1986360  73.2380150
  74.5915600  21.1653120  73.5773860  76.0257100  21.3973150  74.0031400
  74.1105700  21.1123630  60.7343720  73.2069780  21.3753830  60.5595380
  74.5946320  21.3834800  59.9543680  76.6532910  20.1689170  58.6438100
  77.3624610  19.7472390  58.1585380  75.9372850  20.2364400  58.0121450
  76.3007070  16.2228500  57.6840750  77.0235200  16.7637440  58.0021970
  76.5731590  15.9491920  56.8082290  75.9899260  15.4734690  67.5863370
  76.6375450  14.9232070  67.1458530  76.4101100  15.7277840  68.4079180
  75.7431260  15.6290360  70.3288690  75.3946080  16.0854180  71.0946870
  75.4118960  14.7347490  70.4111120  77.3495630  28.8009960  74.4941880
  77.3065260  28.4302870  75.3756340  77.4806640  29.7387530  74.6343700
  81.0501660  30.3569550  70.0951600  80.8093020  30.6244110  69.2082120
  81.9904300  30.5275280  70.1502460  83.2556080  16.8202240  73.8508110
  83.1944970  17.4124070  74.6003520  84.1956460  16.7128200  73.7058370
  85.8930640  16.4772300  73.4900400  86.5071050  16.7951590  72.8281480
  86.4380200  15.9920890  74.1096260  76.4151900  15.1566560  73.6039460
  76.9634890  14.9754610  72.8405570  76.4807210  14.3660670  74.1395770
  77.1883660  31.7472210  71.6139660  76.5943980  31.6156910  72.3529700
  77.1807500  30.9110350  71.1481760  86.6338680  15.0404440  69.8169690
  85.7598520  15.3739550  69.6142620  86.5249430  14.5677620  70.6421560
  87.5410660  17.2475310  71.2011410  87.2124020  16.4327070  70.8213140
  88.4892960  17.2045120  71.0777100  76.8195890  29.1130590  70.5647700
  76.0929950  28.4935880  70.4973650  76.8805040  29.5071200  69.6945780
  80.4240990  31.3275590  67.3497110  80.9406010  30.7162950  66.8245370
  81.0738370  31.8304370  67.8408120  83.1636490  32.2184080  68.1766090
  83.4514300  31.9638380  67.2999100  83.6759710  31.6661440  68.7671660
  84.3813500  15.9574280  68.7562600  83.5985290  16.4319780  69.0359360
  84.0876430  15.0529110  68.6475780  88.9334570  16.6597380  66.8011690
  89.3742660  16.6042480  65.9533290  88.6642160  17.5755390  66.8721870
  75.1025890  32.4304980  63.7744460  74.9347930  31.7975660  64.4726350
  74.2360400  32.6364380  63.4238650  75.7253910  16.2621760  61.2776320
  76.4833270  16.3750640  60.7040350  75.2631080  17.0990960  61.2319750
  82.2667720  18.3761030  64.2678630  81.4542230  18.0017920  63.9274510
  82.7709360  17.6206110  64.5699820  86.7692700  15.0403480  65.5061700
  87.3722070  15.6123690  65.9810220  86.0285690  15.6042920  65.2835600
  76.7088590  31.1238210  61.2194600  76.1836210  31.5046240  60.5156560
  76.6333170  31.7488980  61.9404310  78.0979060  16.7885810  59.8178290
  78.6271820  16.0015610  59.6886240  78.7307380  17.4677000  60.0513820
  80.2916900  16.5260950  62.8723680  79.6619640  15.8248260  63.0393810
  79.7522040  17.2865080  62.6556840  83.2308850  33.1400180  75.5434290
  84.1576160  32.9044450  75.5870250  83.2159280  33.9672180  75.0620320
  80.4172460  15.8044930  75.3076170  80.1356730  16.3078530  74.5436990
  80.7992160  15.0066680  74.9418300  79.3081560  33.0720590  60.0943850
  80.0400380  32.7879870  59.5467740  79.5675230  32.8333870  60.9843230
  78.4696350  29.1885320  60.0990180  77.8405230  29.6570420  60.6476010
  78.5844180  28.3434540  60.5336370  87.0187920  15.2198510  75.8856640
  86.9053370  15.5393120  76.7808160  87.8357660  15.6211020  75.5893920
  85.9246070  23.2390980  46.2491380  85.8440120  22.3245590  45.9783090
  85.5110490  23.7358050  45.5431090  84.0564110  25.0170000  48.1300650
  83.2806210  24.5370440  48.4199220  84.7077040  24.3375650  47.9556810
  78.0729940  25.3289810  49.0076410  77.2414820  25.0738520  49.4072920
  78.6810920  25.4000580  49.7434330  88.0771540  29.4230190  46.9099780
  87.6153070  28.6517430  47.2386950  88.8897090  29.4496260  47.4152230
  78.0531200  29.3629900  49.2034430  78.3559240  28.4727640  49.0244650
  78.7974790  29.9200120  48.9756680  76.4821890  20.2891700  42.7918800
  75.5938590  20.6307670  42.6898680  76.7663080  20.0892020  41.8999630
  74.4454900  22.8897350  48.6758500  75.0171010  22.1219550  48.6762140
  74.4456440  23.1886110  47.7665110  84.3034850  31.7088200  46.5303770
  83.6846290  32.1645700  45.9598210  85.1586630  31.8639660  46.1293470
  83.4973100  27.6927190  48.1370810  83.4281380  26.7517130  47.9759940
  84.2592960  27.7828600  48.7093380  75.6879770  18.2981710  50.4627430
  75.5082610  17.4007460  50.7430190  75.2859850  18.8453580  51.1374380
  84.5278270  20.4997570  48.3639740  84.9043090  19.6269450  48.2513410
  84.4297780  20.8356270  47.4730180  78.6583280  18.8723200  43.8257180
  78.7650030  19.7726930  44.1325940  77.7475640  18.8241170  43.5351830
  88.3102390  17.9948010  45.2968080  89.1312010  17.5044580  45.3393560
  88.3436470  18.5845670  46.0499920  76.3066440  20.7942210  49.0709770
  76.9876550  21.0580580  49.6897170  75.9914490  19.9543080  49.4047780
  80.4991010  21.8409570  48.1582360  81.0069230  22.3390540  48.7987380
  81.0304250  21.0644770  47.9821720  78.7827110  16.4808130  52.4245780
  78.7845550  16.9980520  51.6191680  77.9531420  16.0038310  52.4015710
  85.1698200  26.5927440  43.9235680  84.5515470  27.0576890  43.3598400
  85.6821450  27.2854920  44.3405190  80.0329960  26.1203310  50.6019280
  79.6999340  26.7472230  51.2440350  80.2096640  26.6465190  49.8220950
  88.5463870  19.9348390  48.0695620  87.8419440  20.2233280  48.6498730
  88.9076030  20.7448500  47.7095180  78.4642440  18.1918090  50.4316230
  78.8059250  19.0360140  50.1370100  77.5258250  18.3401830  50.5481570
  79.2449060  28.0884110  52.4168460  79.8623060  28.7635190  52.1352910
  78.3842180  28.4972090  52.3255960  74.5381400  27.2783970  41.2975310
  74.1609380  27.7671070  40.5660210  74.7954470  27.9509250  41.9281840
  82.1470330  15.6800360  46.7560820  82.4545310  15.1247250  46.0396320
  81.2171030  15.8144820  46.5733810  87.6985390  31.3967650  49.0468280
  87.7112550  30.9929940  48.1790540  87.1460610  32.1714940  48.9429710
  88.9930810  28.1183870  44.1358450  88.8827140  27.1758200  44.2607870
  88.9899060  28.4799510  45.0221210  87.0970830  26.2997490  50.3750890
  87.5139620  26.0857600  49.5404350  87.8210650  26.5570280  50.9459510
  84.5351090  23.7449190  43.4920940  83.6080370  23.6786570  43.7209410
  84.6875910  24.6829320  43.3776180  84.5220170  20.0166190  40.4888100
  83.5823840  20.1780150  40.5740560  84.8403430  20.7351870  39.9424090
  88.5648380  25.3069490  43.9956190  87.9460800  24.9689040  43.3482490
  88.5472830  24.6629250  44.7035380  88.0074940  21.4854030  51.4122000
  87.5946120  22.3107740  51.6661990  87.2750890  20.8999070  51.2198360
  80.1407730  24.2713930  46.2740670  79.7364730  23.5591180  45.7786570
  80.2270850  23.9267170  47.1628710  80.6089430  27.9581490  48.4379880
  80.3117720  27.3526960  47.7587660  81.5589250  27.9958800  48.3269240
  78.8536350  21.0457140  50.0539710  79.4050940  21.1552480  49.2792960
  79.3679860  21.4194740  50.7694940  88.6975040  31.5313360  52.1002980
  88.2205600  32.3385550  51.9075590  88.0136830  30.8791690  52.2529190
  79.7007860  27.6963180  55.0887680  78.8036390  27.9203150  55.3361080
  79.7260730  27.8198120  54.1399080  86.7413080  24.5456300  41.0028940
  87.1806360  23.7078730  40.8566760  87.4541500  25.1785700  41.0893080
  78.5279080  24.5676500  53.6645050  78.3886850  25.4399300  54.0332450
  77.6460440  24.2249310  53.5192990  84.8508460  29.4852370  44.9710180
  85.2904370  30.2276700  44.5565570  84.7895350  29.7278940  45.8949140
  80.3259430  30.5098200  55.8730200  80.2974860  30.9141150  55.0058630
  80.1624400  29.5808560  55.7101800  76.8412360  23.1658910  43.7747320
  76.7209960  23.8921000  43.1628590  76.5313250  22.3961820  43.2975230
  74.4797730  26.3374050  49.5815960  74.5578150  26.4722820  48.6371680
  75.0939410  25.6289940  49.7744080  75.7245360  28.0374240  45.9922140
  75.3173440  28.1788830  45.1375740  76.6158370  27.7534400  45.7893350
  85.5424240  32.1866150  52.8989190  86.0568910  32.0974160  53.7011620
  84.6993320  32.5325850  53.1917100  87.5178640  32.4721490  42.3273190
  87.3579780  32.1824430  43.2255020  87.3525350  31.6961620  41.7918420
  79.9967020  32.2520020  44.1044810  79.8209500  31.3355560  43.8912610
  79.1422760  32.6107310  44.3442610  87.2204770  29.9809050  40.8871190
  86.5269930  29.9786340  40.2273470  87.9627630  29.5568370  40.4565360
  86.7854700  31.6071760  44.9619680  87.2411650  30.8261140  45.2758300
  87.1247220  32.3178580  45.5060860  74.5357250  27.3788220  52.1210420
  74.6988290  26.9093580  51.3029790  75.0009700  26.8711780  52.7859260
  79.3076020  16.5093980  47.1570990  78.8644170  17.2903520  46.8255510
  79.8661010  16.8323870  47.8641930  83.5945830  19.3762500  52.7606310
  83.1325200  19.5845520  53.5726250  83.1923940  18.5621850  52.4576980
  88.5950340  20.5971450  53.8902970  87.7443930  20.2977200  54.2112040
  88.4352130  20.8413460  52.9786790  85.6900050  22.0973200  55.9901760
  86.0153460  21.2636950  55.6503990  86.4780380  22.6201720  56.1380090
  82.4234840  16.1304680  42.0376820  81.7989020  16.1264550  42.7630130
  82.3364960  15.2635640  41.6412790  81.3451920  17.0541310  49.0160590
  81.6424250  17.9604140  48.9352610  81.8937480  16.5660090  48.4020160
  79.0990240  21.6327550  44.8852240  78.8731160  21.4164720  45.7898860
  78.3182770  22.0656010  44.5398210  86.3288000  21.6390920  43.4842890
  85.7296890  22.3626720  43.3006510  86.8767610  21.5767700  42.7019340
  81.5389450  22.5313130  55.5512510  81.4433050  21.5907860  55.4012910
  82.3821430  22.7528200  55.1560580  84.9352870  20.2754460  45.5146170
  85.3282440  20.5926660  44.7014860  85.2969720  19.3966340  45.6290690
  76.6699990  18.9426800  53.7046290  76.2763380  19.7902010  53.9119070
  75.9818390  18.3053170  53.8954930  83.2445040  19.0261770  56.7743030
  82.5543360  18.8333970  57.4089120  83.9877340  19.3096410  57.3067330
  73.9717040  16.8655260  47.7376370  73.6830090  17.4358120  48.4501350
  74.7162800  16.3859710  48.1007600  74.1587270  20.8075380  38.9479090
  74.0761940  21.7506140  39.0894080  73.8070330  20.6650290  38.0691440
  85.5208010  22.8660210  49.6096950  84.7889130  23.3747020  49.9587050
  85.1232350  22.0490190  49.3085730  81.9585400  19.5414410  48.0149440
  81.9621460  19.1004360  47.1653980  82.8536520  19.8631740  48.1221260
  77.8087780  19.4240900  46.9743650  77.4687830  19.9016130  47.7310700
  77.0465100  18.9706020  46.6144750  82.0205550  20.5426490  41.0056200
  82.1418370  20.5012970  41.9542020  81.6354060  21.4050640  40.8502930
  85.9833920  18.3193890  49.0219890  86.0006660  18.7702540  49.8661740
  85.7349500  17.4199530  49.2353330  81.0327050  22.8527630  40.4039500
  80.4643950  22.4045880  39.7775410  81.7416050  23.2120410  39.8704650
  89.4104670  15.7326070  54.8606270  89.7350440  15.0015730  55.3864250
  89.4461180  15.4139710  53.9587260  76.1096230  26.7539650  54.2806230
  75.7251020  26.1133320  54.8789190  76.4208420  27.4575770  54.8500960
  82.2593370  23.6016190  49.7614850  82.6263500  23.1274760  50.5076190
  82.0698430  24.4757760  50.1023190  75.1233860  18.3459880  45.8908320
  74.8380780  17.9815550  46.7286940  75.0612720  17.6140340  45.2771460
  80.0492740  22.6424830  52.0799060  79.7449810  23.5216810  52.3049420
  81.0039200  22.7024620  52.1156500  78.5774530  26.8485820  42.6765910
  77.8036790  26.3083440  42.5164630  79.3069160  26.3292430  42.3383670
  84.7972450  17.2389140  42.6121690  83.9837060  16.7402310  42.5367000
  84.6034400  18.0787390  42.1958040  84.7181310  25.9160240  54.3561300
  84.6518620  24.9955910  54.1018890  84.0886450  26.0135680  55.0705940
  87.5120840  21.6108790  40.9083850  88.4000460  21.9226020  40.7335190
  87.4825930  20.7381040  40.5164430  78.6211930  26.5166200  46.3144720
  79.1390600  25.7134460  46.2601610  78.1695950  26.4545340  47.1561550
  83.5081430  27.7832480  41.5872020  83.8497130  28.5274710  41.0915340
  82.6794140  28.0963600  41.9496850  76.1056470  23.4827570  53.2270420
  75.7471410  24.1481420  53.8143760  75.8111030  22.6511120  53.5983040
  79.3069590  23.9411810  56.1109970  79.0069730  24.0868990  55.2137790
  80.0780830  23.3817100  56.0183360  84.6498040  28.7380810  54.1065100
  84.6642580  27.8061770  53.8884010  83.9423140  28.8240570  54.7454870
  86.3908840  27.1048320  46.9517530  86.7432660  26.5076450  46.2918900
  85.5071170  26.7792550  47.1225780  82.4772120  27.8646010  44.3587940
  83.1643250  28.4115220  44.7395530  81.6904540  28.4086740  44.3937550
  74.6164520  23.4818830  39.8505020  75.4859370  23.7643630  40.1340940
  74.1254840  24.2954700  39.7353830  81.7799330  24.8692040  43.9713300
  82.2362110  25.6797290  44.1973490  81.4287540  24.5515180  44.8031790
  84.0831940  30.3798380  51.2005600  84.7274160  30.5857760  51.8779020
  84.4461380  29.6186780  50.7476450  77.6811110  15.2129690  44.4435820
  77.5525740  15.2047590  45.3920740  76.8573130  15.5512780  44.0926830
  85.3564020  28.3830730  49.9183050  85.9986250  27.6823890  50.0315220
  85.8813370  29.1629170  49.7379940  89.2019740  28.6679350  39.6422190
  88.9757320  27.9509790  40.2346830  88.8115940  28.4191790  38.8043940
  87.1301640  29.1825630  53.1219110  87.4657880  29.7692320  53.7997030
  86.2101980  29.0518340  53.3516900  74.9835770  32.6946210  40.4166650
  75.3433410  33.2935550  39.7623920  74.8428110  33.2406100  41.1901680
  74.6805040  16.9720810  53.9042520  73.9663560  17.1717730  54.5095130
  75.1000080  16.1960380  54.2757320  88.7835990  26.5851290  41.3036350
  88.4957690  27.0463980  42.0914230  89.5788160  26.1249060  41.5720570
  74.9677630  30.9601070  54.8909050  75.0768750  30.0195810  54.7504440
  74.3158190  31.2255820  54.2422780  82.9590220  29.2316960  56.2907170
  82.6387090  28.5126200  56.8352860  82.2848580  29.9072030  56.3643230
  81.0004390  30.0777410  41.2340320  80.9914490  30.8107100  40.6184830
  80.0802750  29.8308990  41.3267280  76.6011030  25.2992300  41.9787080
  75.9938980  26.0391200  41.9882380  77.0760380  25.3891660  41.1525280
  86.1743820  19.4643120  51.6543970  86.5424640  18.6438330  51.9823540
  85.3142020  19.5245010  52.0699620  89.5405850  18.4200060  42.4631530
  88.9119010  18.5245730  41.7489760  89.0457770  18.6396840  43.2525410
  83.9863990  30.1405650  39.8965510  84.0875970  29.9369640  38.9667490
  83.0865730  29.8863930  40.1013290  81.5089880  20.6986010  43.8789410
  80.8006030  21.1672350  44.3203020  81.7934360  20.0408020  44.5134600
  83.1345810  22.1182710  51.8781940  83.6331060  22.5928530  52.5433790
  83.2768760  21.1946230  52.0851970  85.5405310  17.4236670  45.3185200
  85.4173090  17.4422800  44.3694710  86.4889870  17.4715610  45.4383600
  82.6282100  32.6591970  44.5913180  82.8823600  32.6213360  43.6692550
  81.6794580  32.5325300  44.5841430  79.7124900  19.0071090  41.2540120
  80.5615430  19.4441240  41.1880310  79.3456170  19.3191350  42.0812180
  88.6334680  23.5783850  46.1671690  87.6924820  23.5934080  46.3419380
  88.9478750  22.7919810  46.6131990  78.6116320  25.2603450  39.7275650
  79.3779590  25.1484810  40.2901080  78.6891010  24.5641420  39.0752420
  77.3063080  22.6928520  40.4108540  77.3866670  21.7456030  40.5225940
  78.1982830  23.0235400  40.5169200  78.1077790  32.8423910  47.5143080
  78.8440270  32.2939370  47.7851650  78.4918710  33.7079920  47.3749070
  74.9923270  28.9097480  43.3884590  74.0663050  29.1518620  43.3790000
  75.4579700  29.7371740  43.2669340  77.1136070  32.0269980  56.7028660
  77.9148800  32.3482030  57.1164060  76.5987890  31.6665560  57.4248570
  81.2180100  32.0154220  39.3368650  82.0108710  32.3043050  38.8850440
  80.6984450  31.5846390  38.6581130  85.9500700  28.1349850  56.6504070
  85.3438860  28.1581450  55.9099820  85.6454810  27.4032890  57.1871320
  87.3801070  31.8630140  55.2613480  88.3322820  31.7788160  55.2113720
  87.2329290  32.5271850  55.9347270  74.8333880  24.5143440  55.6464710
  75.3372900  23.9350720  56.2180940  74.0941300  24.7983670  56.1841080
  81.7357500  27.2357630  39.2011000  81.6308140  26.6209980  39.9272380
  81.5681720  26.7123520  38.4174010  81.8871820  25.9214430  55.1800230
  81.1217490  26.4899430  55.0954900  82.0687780  25.6290640  54.2868460
  84.9760230  26.2977660  39.8052990  84.4270330  26.7446960  40.4495730
  85.5979490  25.7926910  40.3290660  89.0295170  27.6519760  55.7375250
  89.7704640  27.9895520  55.2342710  88.2667850  27.8211820  55.1845020
  76.8656960  22.6573030  56.5414780  76.9062300  22.3586900  57.4500010
  77.7202460  23.0580640  56.3822300  80.6435350  25.2568580  41.7018290
  81.0651770  25.0908450  42.5449680  80.7686190  24.4468810  41.2073430
  78.8062770  21.2365130  54.5089270  78.2759230  20.7456080  53.8812610
  79.4750840  21.6649330  53.9747200  83.1562990  24.2806190  38.9495390
  83.6768650  23.5655210  38.5836540  83.8031390  24.9192060  39.2495900
  87.7040830  25.7034590  54.2730460  88.1181850  25.8579670  55.1220880
  86.7691830  25.8289810  54.4356240  88.1763000  23.0430750  56.2769610
  88.7583770  22.2883070  56.1890090  88.3524770  23.5738190  55.5001090
  79.2935070  18.2027500  54.5886560  79.1991940  17.5848250  53.8637430
  78.7132460  18.9293790  54.3616470  82.0596510  16.7600740  51.6213950
  81.6113810  16.7825000  50.7759500  81.4261710  16.3619760  52.2184250
  82.4656060  25.6555070  52.2426390  82.8844170  26.4987800  52.0702630
  81.5464690  25.7927110  52.0133170  84.8019960  23.3871250  53.6264230
  84.9216170  22.7912390  54.3659070  85.6613960  23.4240940  53.2065530
  87.1407860  23.9408440  52.2026740  86.6143080  24.4651060  51.5991880
  87.4839200  24.5735830  52.8336470  79.5394250  21.3301810  38.6476450
  79.3383310  20.4669170  39.0089790  79.3686300  21.2435170  37.7098050
  80.3163480  31.9608080  53.3584120  79.7784570  32.6854140  53.0392820
  80.5697440  31.4838420  52.5681460  81.5688730  19.9292600  54.8840050
  82.1588420  19.6208450  55.5717870  80.7508970  19.4572350  55.0399950
  86.3882160  19.5458410  55.1173070  85.6997680  18.8839950  55.0523060
  87.1088180  19.0996680  55.5621530  87.0182560  16.1410040  41.1763330
  87.2984850  15.2977940  41.5322750  86.2448290  16.3733150  41.6902080
  78.3377050  18.4302430  38.6354330  78.6402950  18.4369860  37.7273480
  79.0771640  18.0800290  39.1321990  83.1725690  33.1959290  53.6170770
  83.0984390  34.0994430  53.9243140  82.2704530  32.8771190  53.5892840
  81.5561980  17.3737050  39.6210530  81.2083980  16.6961040  39.0412980
  81.7574750  16.9126560  40.4353920  83.7211020  32.3617800  41.2397130
  84.6161810  32.7002770  41.2615890  83.7528650  31.6397210  40.6121410
  77.3607180  27.7344850  39.4684130  77.7982050  28.2774520  40.1241710
  77.8454910  26.9091800  39.4780470  79.1714900  28.8542890  44.5806360
  78.8710440  28.7307860  45.4810270  79.0652390  27.9951480  44.1722090
  75.0643190  31.3904470  49.6586020  74.6274180  31.5705270  50.4910170
  75.6320870  32.1479090  49.5167740  74.8967620  23.9024700  46.0174900
  74.2416460  23.6336340  45.3734600  75.7345570  23.7929180  45.5676880
  89.3857010  27.6173450  52.0439490  88.5716850  28.0470610  52.3065280
  89.7931210  28.2291860  51.4308540  87.8458060  18.6965990  40.2393390
  88.2642940  18.5096970  39.3990050  87.5394120  17.8445040  40.5496320
  75.9343550  24.2877270  50.5578240  76.3016590  24.2004670  51.4374260
  75.3654370  23.5243820  50.4585100  75.4859550  21.1986360  54.4636660
  74.5915600  21.1653120  54.8030370  76.0257100  21.3973150  55.2287910
  74.1105700  21.1123630  41.9600230  73.2069780  21.3753830  41.7851890
  74.5946320  21.3834800  41.1800190  76.6532910  20.1689170  39.8694610
  77.3624610  19.7472390  39.3841890  75.9372850  20.2364400  39.2377960
  76.3007070  16.2228500  38.9097260  77.0235200  16.7637440  39.2278480
  76.5731590  15.9491920  38.0338800  75.9899260  15.4734690  48.8119880
  76.6375450  14.9232070  48.3715040  76.4101100  15.7277840  49.6335690
  75.7431260  15.6290360  51.5545200  75.3946080  16.0854180  52.3203380
  75.4118960  14.7347490  51.6367630  77.3495630  28.8009960  55.7198390
  77.3065260  28.4302870  56.6012850  77.4806640  29.7387530  55.8600210
  81.0501660  30.3569550  51.3208110  80.8093020  30.6244110  50.4338630
  81.9904300  30.5275280  51.3758970  83.2556080  16.8202240  55.0764620
  83.1944970  17.4124070  55.8260030  84.1956460  16.7128200  54.9314880
  85.8930640  16.4772300  54.7156910  86.5071050  16.7951590  54.0537990
  86.4380200  15.9920890  55.3352770  76.4151900  15.1566560  54.8295970
  76.9634890  14.9754610  54.0662080  76.4807210  14.3660670  55.3652280
  77.1883660  31.7472210  52.8396170  76.5943980  31.6156910  53.5786210
  77.1807500  30.9110350  52.3738270  86.6338680  15.0404440  51.0426200
  85.7598520  15.3739550  50.8399130  86.5249430  14.5677620  51.8678070
  87.5410660  17.2475310  52.4267920  87.2124020  16.4327070  52.0469650
  88.4892960  17.2045120  52.3033610  76.8195890  29.1130590  51.7904210
  76.0929950  28.4935880  51.7230160  76.8805040  29.5071200  50.9202290
  80.4240990  31.3275590  48.5753620  80.9406010  30.7162950  48.0501880
  81.0738370  31.8304370  49.0664630  83.1636490  32.2184080  49.4022600
  83.4514300  31.9638380  48.5255610  83.6759710  31.6661440  49.9928170
  84.3813500  15.9574280  49.9819110  83.5985290  16.4319780  50.2615870
  84.0876430  15.0529110  49.8732290  88.9334570  16.6597380  48.0268200
  89.3742660  16.6042480  47.1789800  88.6642160  17.5755390  48.0978380
  75.1025890  32.4304980  45.0000970  74.9347930  31.7975660  45.6982860
  74.2360400  32.6364380  44.6495160  75.7253910  16.2621760  42.5032830
  76.4833270  16.3750640  41.9296860  75.2631080  17.0990960  42.4576260
  82.2667720  18.3761030  45.4935140  81.4542230  18.0017920  45.1531020
  82.7709360  17.6206110  45.7956330  86.7692700  15.0403480  46.7318210
  87.3722070  15.6123690  47.2066730  86.0285690  15.6042920  46.5092110
  76.7088590  31.1238210  42.4451110  76.1836210  31.5046240  41.7413070
  76.6333170  31.7488980  43.1660820  78.0979060  16.7885810  41.0434800
  78.6271820  16.0015610  40.9142750  78.7307380  17.4677000  41.2770330
  80.2916900  16.5260950  44.0980190  79.6619640  15.8248260  44.2650320
  79.7522040  17.2865080  43.8813350  83.2308850  33.1400180  56.7690800
  84.1576160  32.9044450  56.8126760  83.2159280  33.9672180  56.2876830
  80.4172460  15.8044930  56.5332680  80.1356730  16.3078530  55.7693500
  80.7992160  15.0066680  56.1674810  79.3081560  33.0720590  41.3200360
  80.0400380  32.7879870  40.7724250  79.5675230  32.8333870  42.2099740
  78.4696350  29.1885320  41.3246690  77.8405230  29.6570420  41.8732520
  78.5844180  28.3434540  41.7592880  87.0187920  15.2198510  57.1113150
  86.9053370  15.5393120  58.0064670  87.8357660  15.6211020  56.8150430
  85.9246070  23.2390980  27.4747890  85.8440120  22.3245590  27.2039600
  85.5110490  23.7358050  26.7687600  84.0564110  25.0170000  29.3557160
  83.2806210  24.5370440  29.6455730  84.7077040  24.3375650  29.1813320
  78.0729940  25.3289810  30.2332920  77.2414820  25.0738520  30.6329430
  78.6810920  25.4000580  30.9690840  88.0771540  29.4230190  28.1356290
  87.6153070  28.6517430  28.4643460  88.8897090  29.4496260  28.6408740
  78.0531200  29.3629900  30.4290940  78.3559240  28.4727640  30.2501160
  78.7974790  29.9200120  30.2013190  76.4821890  20.2891700  24.0175310
  75.5938590  20.6307670  23.9155190  76.7663080  20.0892020  23.1256140
  74.4454900  22.8897350  29.9015010  75.0171010  22.1219550  29.9018650
  74.4456440  23.1886110  28.9921620  84.3034850  31.7088200  27.7560280
  83.6846290  32.1645700  27.1854720  85.1586630  31.8639660  27.3549980
  83.4973100  27.6927190  29.3627320  83.4281380  26.7517130  29.2016450
  84.2592960  27.7828600  29.9349890  75.6879770  18.2981710  31.6883940
  75.5082610  17.4007460  31.9686700  75.2859850  18.8453580  32.3630890
  84.5278270  20.4997570  29.5896250  84.9043090  19.6269450  29.4769920
  84.4297780  20.8356270  28.6986690  78.6583280  18.8723200  25.0513690
  78.7650030  19.7726930  25.3582450  77.7475640  18.8241170  24.7608340
  88.3102390  17.9948010  26.5224590  89.1312010  17.5044580  26.5650070
  88.3436470  18.5845670  27.2756430  76.3066440  20.7942210  30.2966280
  76.9876550  21.0580580  30.9153680  75.9914490  19.9543080  30.6304290
  80.4991010  21.8409570  29.3838870  81.0069230  22.3390540  30.0243890
  81.0304250  21.0644770  29.2078230  78.7827110  16.4808130  33.6502290
  78.7845550  16.9980520  32.8448190  77.9531420  16.0038310  33.6272220
  85.1698200  26.5927440  25.1492190  84.5515470  27.0576890  24.5854910
  85.6821450  27.2854920  25.5661700  80.0329960  26.1203310  31.8275790
  79.6999340  26.7472230  32.4696860  80.2096640  26.6465190  31.0477460
  88.5463870  19.9348390  29.2952130  87.8419440  20.2233280  29.8755240
  88.9076030  20.7448500  28.9351690  78.4642440  18.1918090  31.6572740
  78.8059250  19.0360140  31.3626610  77.5258250  18.3401830  31.7738080
  79.2449060  28.0884110  33.6424970  79.8623060  28.7635190  33.3609420
  78.3842180  28.4972090  33.5512470  74.5381400  27.2783970  22.5231820
  74.1609380  27.7671070  21.7916720  74.7954470  27.9509250  23.1538350
  82.1470330  15.6800360  27.9817330  82.4545310  15.1247250  27.2652830
  81.2171030  15.8144820  27.7990320  87.6985390  31.3967650  30.2724790
  87.7112550  30.9929940  29.4047050  87.1460610  32.1714940  30.1686220
  88.9930810  28.1183870  25.3614960  88.8827140  27.1758200  25.4864380
  88.9899060  28.4799510  26.2477720  87.0970830  26.2997490  31.6007400
  87.5139620  26.0857600  30.7660860  87.8210650  26.5570280  32.1716020
  84.5351090  23.7449190  24.7177450  83.6080370  23.6786570  24.9465920
  84.6875910  24.6829320  24.6032690  84.5220170  20.0166190  21.7144610
  83.5823840  20.1780150  21.7997070  84.8403430  20.7351870  21.1680600
  88.5648380  25.3069490  25.2212700  87.9460800  24.9689040  24.5739000
  88.5472830  24.6629250  25.9291890  88.0074940  21.4854030  32.6378510
  87.5946120  22.3107740  32.8918500  87.2750890  20.8999070  32.4454870
  80.1407730  24.2713930  27.4997180  79.7364730  23.5591180  27.0043080
  80.2270850  23.9267170  28.3885220  80.6089430  27.9581490  29.6636390
  80.3117720  27.3526960  28.9844170  81.5589250  27.9958800  29.5525750
  78.8536350  21.0457140  31.2796220  79.4050940  21.1552480  30.5049470
  79.3679860  21.4194740  31.9951450  88.6975040  31.5313360  33.3259490
  88.2205600  32.3385550  33.1332100  88.0136830  30.8791690  33.4785700
  79.7007860  27.6963180  36.3144190  78.8036390  27.9203150  36.5617590
  79.7260730  27.8198120  35.3655590  86.7413080  24.5456300  22.2285450
  87.1806360  23.7078730  22.0823270  87.4541500  25.1785700  22.3149590
  78.5279080  24.5676500  34.8901560  78.3886850  25.4399300  35.2588960
  77.6460440  24.2249310  34.7449500  84.8508460  29.4852370  26.1966690
  85.2904370  30.2276700  25.7822080  84.7895350  29.7278940  27.1205650
  80.3259430  30.5098200  37.0986710  80.2974860  30.9141150  36.2315140
  80.1624400  29.5808560  36.9358310  76.8412360  23.1658910  25.0003830
  76.7209960  23.8921000  24.3885100  76.5313250  22.3961820  24.5231740
  74.4797730  26.3374050  30.8072470  74.5578150  26.4722820  29.8628190
  75.0939410  25.6289940  31.0000590  75.7245360  28.0374240  27.2178650
  75.3173440  28.1788830  26.3632250  76.6158370  27.7534400  27.0149860
  85.5424240  32.1866150  34.1245700  86.0568910  32.0974160  34.9268130
  84.6993320  32.5325850  34.4173610  87.5178640  32.4721490  23.5529700
  87.3579780  32.1824430  24.4511530  87.3525350  31.6961620  23.0174930
  79.9967020  32.2520020  25.3301320  79.8209500  31.3355560  25.1169120
  79.1422760  32.6107310  25.5699120  87.2204770  29.9809050  22.1127700
  86.5269930  29.9786340  21.4529980  87.9627630  29.5568370  21.6821870
  86.7854700  31.6071760  26.1876190  87.2411650  30.8261140  26.5014810
  87.1247220  32.3178580  26.7317370  74.5357250  27.3788220  33.3466930
  74.6988290  26.9093580  32.5286300  75.0009700  26.8711780  34.0115770
  79.3076020  16.5093980  28.3827500  78.8644170  17.2903520  28.0512020
  79.8661010  16.8323870  29.0898440  83.5945830  19.3762500  33.9862820
  83.1325200  19.5845520  34.7982760  83.1923940  18.5621850  33.6833490
  88.5950340  20.5971450  35.1159480  87.7443930  20.2977200  35.4368550
  88.4352130  20.8413460  34.2043300  85.6900050  22.0973200  37.2158270
  86.0153460  21.2636950  36.8760500  86.4780380  22.6201720  37.3636600
  82.4234840  16.1304680  23.2633330  81.7989020  16.1264550  23.9886640
  82.3364960  15.2635640  22.8669300  81.3451920  17.0541310  30.2417100
  81.6424250  17.9604140  30.1609120  81.8937480  16.5660090  29.6276670
  79.0990240  21.6327550  26.1108750  78.8731160  21.4164720  27.0155370
  78.3182770  22.0656010  25.7654720  86.3288000  21.6390920  24.7099400
  85.7296890  22.3626720  24.5263020  86.8767610  21.5767700  23.9275850
  81.5389450  22.5313130  36.7769020  81.4433050  21.5907860  36.6269420
  82.3821430  22.7528200  36.3817090  84.9352870  20.2754460  26.7402680
  85.3282440  20.5926660  25.9271370  85.2969720  19.3966340  26.8547200
  76.6699990  18.9426800  34.9302800  76.2763380  19.7902010  35.1375580
  75.9818390  18.3053170  35.1211440  83.2445040  19.0261770  37.9999540
  82.5543360  18.8333970  38.6345630  83.9877340  19.3096410  38.5323840
  73.9717040  16.8655260  28.9632880  73.6830090  17.4358120  29.6757860
  74.7162800  16.3859710  29.3264110  74.1587270  20.8075380  20.1735600
  74.0761940  21.7506140  20.3150590  73.8070330  20.6650290  19.2947950
  85.5208010  22.8660210  30.8353460  84.7889130  23.3747020  31.1843560
  85.1232350  22.0490190  30.5342240  81.9585400  19.5414410  29.2405950
  81.9621460  19.1004360  28.3910490  82.8536520  19.8631740  29.3477770
  77.8087780  19.4240900  28.2000160  77.4687830  19.9016130  28.9567210
  77.0465100  18.9706020  27.8401260  82.0205550  20.5426490  22.2312710
  82.1418370  20.5012970  23.1798530  81.6354060  21.4050640  22.0759440
  85.9833920  18.3193890  30.2476400  86.0006660  18.7702540  31.0918250
  85.7349500  17.4199530  30.4609840  81.0327050  22.8527630  21.6296010
  80.4643950  22.4045880  21.0031920  81.7416050  23.2120410  21.0961160
  89.4104670  15.7326070  36.0862780  89.7350440  15.0015730  36.6120760
  89.4461180  15.4139710  35.1843770  76.1096230  26.7539650  35.5062740
  75.7251020  26.1133320  36.1045700  76.4208420  27.4575770  36.0757470
  82.2593370  23.6016190  30.9871360  82.6263500  23.1274760  31.7332700
  82.0698430  24.4757760  31.3279700  75.1233860  18.3459880  27.1164830
  74.8380780  17.9815550  27.9543450  75.0612720  17.6140340  26.5027970
  80.0492740  22.6424830  33.3055570  79.7449810  23.5216810  33.5305930
  81.0039200  22.7024620  33.3413010  78.5774530  26.8485820  23.9022420
  77.8036790  26.3083440  23.7421140  79.3069160  26.3292430  23.5640180
  84.7972450  17.2389140  23.8378200  83.9837060  16.7402310  23.7623510
  84.6034400  18.0787390  23.4214550  84.7181310  25.9160240  35.5817810
  84.6518620  24.9955910  35.3275400  84.0886450  26.0135680  36.2962450
  87.5120840  21.6108790  22.1340360  88.4000460  21.9226020  21.9591700
  87.4825930  20.7381040  21.7420940  78.6211930  26.5166200  27.5401230
  79.1390600  25.7134460  27.4858120  78.1695950  26.4545340  28.3818060
  83.5081430  27.7832480  22.8128530  83.8497130  28.5274710  22.3171850
  82.6794140  28.0963600  23.1753360  76.1056470  23.4827570  34.4526930
  75.7471410  24.1481420  35.0400270  75.8111030  22.6511120  34.8239550
  79.3069590  23.9411810  37.3366480  79.0069730  24.0868990  36.4394300
  80.0780830  23.3817100  37.2439870  84.6498040  28.7380810  35.3321610
  84.6642580  27.8061770  35.1140520  83.9423140  28.8240570  35.9711380
  86.3908840  27.1048320  28.1774040  86.7432660  26.5076450  27.5175410
  85.5071170  26.7792550  28.3482290  82.4772120  27.8646010  25.5844450
  83.1643250  28.4115220  25.9652040  81.6904540  28.4086740  25.6194060
  74.6164520  23.4818830  21.0761530  75.4859370  23.7643630  21.3597450
  74.1254840  24.2954700  20.9610340  81.7799330  24.8692040  25.1969810
  82.2362110  25.6797290  25.4230000  81.4287540  24.5515180  26.0288300
  84.0831940  30.3798380  32.4262110  84.7274160  30.5857760  33.1035530
  84.4461380  29.6186780  31.9732960  77.6811110  15.2129690  25.6692330
  77.5525740  15.2047590  26.6177250  76.8573130  15.5512780  25.3183340
  85.3564020  28.3830730  31.1439560  85.9986250  27.6823890  31.2571730
  85.8813370  29.1629170  30.9636450  89.2019740  28.6679350  20.8678700
  88.9757320  27.9509790  21.4603340  88.8115940  28.4191790  20.0300450
  87.1301640  29.1825630  34.3475620  87.4657880  29.7692320  35.0253540
  86.2101980  29.0518340  34.5773410  74.9835770  32.6946210  21.6423160
  75.3433410  33.2935550  20.9880430  74.8428110  33.2406100  22.4158190
  74.6805040  16.9720810  35.1299030  73.9663560  17.1717730  35.7351640
  75.1000080  16.1960380  35.5013830  88.7835990  26.5851290  22.5292860
  88.4957690  27.0463980  23.3170740  89.5788160  26.1249060  22.7977080
  74.9677630  30.9601070  36.1165560  75.0768750  30.0195810  35.9760950
  74.3158190  31.2255820  35.4679290  82.9590220  29.2316960  37.5163680
  82.6387090  28.5126200  38.0609370  82.2848580  29.9072030  37.5899740
  81.0004390  30.0777410  22.4596830  80.9914490  30.8107100  21.8441340
  80.0802750  29.8308990  22.5523790  76.6011030  25.2992300  23.2043590
  75.9938980  26.0391200  23.2138890  77.0760380  25.3891660  22.3781790
  86.1743820  19.4643120  32.8800480  86.5424640  18.6438330  33.2080050
  85.3142020  19.5245010  33.2956130  89.5405850  18.4200060  23.6888040
  88.9119010  18.5245730  22.9746270  89.0457770  18.6396840  24.4781920
  83.9863990  30.1405650  21.1222020  84.0875970  29.9369640  20.1924000
  83.0865730  29.8863930  21.3269800  81.5089880  20.6986010  25.1045920
  80.8006030  21.1672350  25.5459530  81.7934360  20.0408020  25.7391110
  83.1345810  22.1182710  33.1038450  83.6331060  22.5928530  33.7690300
  83.2768760  21.1946230  33.3108480  85.5405310  17.4236670  26.5441710
  85.4173090  17.4422800  25.5951220  86.4889870  17.4715610  26.6640110
  82.6282100  32.6591970  25.8169690  82.8823600  32.6213360  24.8949060
  81.6794580  32.5325300  25.8097940  79.7124900  19.0071090  22.4796630
  80.5615430  19.4441240  22.4136820  79.3456170  19.3191350  23.3068690
  88.6334680  23.5783850  27.3928200  87.6924820  23.5934080  27.5675890
  88.9478750  22.7919810  27.8388500  78.6116320  25.2603450  20.9532160
  79.3779590  25.1484810  21.5157590  78.6891010  24.5641420  20.3008930
  77.3063080  22.6928520  21.6365050  77.3866670  21.7456030  21.7482450
  78.1982830  23.0235400  21.7425710  78.1077790  32.8423910  28.7399590
  78.8440270  32.2939370  29.0108160  78.4918710  33.7079920  28.6005580
  74.9923270  28.9097480  24.6141100  74.0663050  29.1518620  24.6046510
  75.4579700  29.7371740  24.4925850  77.1136070  32.0269980  37.9285170
  77.9148800  32.3482030  38.3420570  76.5987890  31.6665560  38.6505080
  81.2180100  32.0154220  20.5625160  82.0108710  32.3043050  20.1106950
  80.6984450  31.5846390  19.8837640  85.9500700  28.1349850  37.8760580
  85.3438860  28.1581450  37.1356330  85.6454810  27.4032890  38.4127830
  87.3801070  31.8630140  36.4869990  88.3322820  31.7788160  36.4370230
  87.2329290  32.5271850  37.1603780  74.8333880  24.5143440  36.8721220
  75.3372900  23.9350720  37.4437450  74.0941300  24.7983670  37.4097590
  81.7357500  27.2357630  20.4267510  81.6308140  26.6209980  21.1528890
  81.5681720  26.7123520  19.6430520  81.8871820  25.9214430  36.4056740
  81.1217490  26.4899430  36.3211410  82.0687780  25.6290640  35.5124970
  84.9760230  26.2977660  21.0309500  84.4270330  26.7446960  21.6752240
  85.5979490  25.7926910  21.5547170  89.0295170  27.6519760  36.9631760
  89.7704640  27.9895520  36.4599220  88.2667850  27.8211820  36.4101530
  76.8656960  22.6573030  37.7671290  76.9062300  22.3586900  38.6756520
  77.7202460  23.0580640  37.6078810  80.6435350  25.2568580  22.9274800
  81.0651770  25.0908450  23.7706190  80.7686190  24.4468810  22.4329940
  78.8062770  21.2365130  35.7345780  78.2759230  20.7456080  35.1069120
  79.4750840  21.6649330  35.2003710  83.1562990  24.2806190  20.1751900
  83.6768650  23.5655210  19.8093050  83.8031390  24.9192060  20.4752410
  87.7040830  25.7034590  35.4986970  88.1181850  25.8579670  36.3477390
  86.7691830  25.8289810  35.6612750  88.1763000  23.0430750  37.5026120
  88.7583770  22.2883070  37.4146600  88.3524770  23.5738190  36.7257600
  79.2935070  18.2027500  35.8143070  79.1991940  17.5848250  35.0893940
  78.7132460  18.9293790  35.5872980  82.0596510  16.7600740  32.8470460
  81.6113810  16.7825000  32.0016010  81.4261710  16.3619760  33.4440760
  82.4656060  25.6555070  33.4682900  82.8844170  26.4987800  33.2959140
  81.5464690  25.7927110  33.2389680  84.8019960  23.3871250  34.8520740
  84.9216170  22.7912390  35.5915580  85.6613960  23.4240940  34.4322040
  87.1407860  23.9408440  33.4283250  86.6143080  24.4651060  32.8248390
  87.4839200  24.5735830  34.0592980  79.5394250  21.3301810  19.8732960
  79.3383310  20.4669170  20.2346300  79.3686300  21.2435170  18.9354560
  80.3163480  31.9608080  34.5840630  79.7784570  32.6854140  34.2649330
  80.5697440  31.4838420  33.7937970  81.5688730  19.9292600  36.1096560
  82.1588420  19.6208450  36.7974380  80.7508970  19.4572350  36.2656460
  86.3882160  19.5458410  36.3429580  85.6997680  18.8839950  36.2779570
  87.1088180  19.0996680  36.7878040  87.0182560  16.1410040  22.4019840
  87.2984850  15.2977940  22.7579260  86.2448290  16.3733150  22.9158590
  78.3377050  18.4302430  19.8610840  78.6402950  18.4369860  18.9529990
  79.0771640  18.0800290  20.3578500  83.1725690  33.1959290  34.8427280
  83.0984390  34.0994430  35.1499650  82.2704530  32.8771190  34.8149350
  81.5561980  17.3737050  20.8467040  81.2083980  16.6961040  20.2669490
  81.7574750  16.9126560  21.6610430  83.7211020  32.3617800  22.4653640
  84.6161810  32.7002770  22.4872400  83.7528650  31.6397210  21.8377920
  77.3607180  27.7344850  20.6940640  77.7982050  28.2774520  21.3498220
  77.8454910  26.9091800  20.7036980  74.5752980  30.5233880  28.1460900
  74.9055990  29.6554940  27.9139540  75.0043980  30.7292400  28.9765860
  79.1714900  28.8542890  25.8062870  78.8710440  28.7307860  26.7066780
  79.0652390  27.9951480  25.3978600  75.0643190  31.3904470  30.8842530
  74.6274180  31.5705270  31.7166680  75.6320870  32.1479090  30.7424250
  74.8967620  23.9024700  27.2431410  74.2416460  23.6336340  26.5991110
  75.7345570  23.7929180  26.7933390  89.3857010  27.6173450  33.2696000
  88.5716850  28.0470610  33.5321790  89.7931210  28.2291860  32.6565050
  87.8458060  18.6965990  21.4649900  88.2642940  18.5096970  20.6246560
  87.5394120  17.8445040  21.7752830  75.9343550  24.2877270  31.7834750
  76.3016590  24.2004670  32.6630770  75.3654370  23.5243820  31.6841610
  75.4859550  21.1986360  35.6893170  74.5915600  21.1653120  36.0286880
  76.0257100  21.3973150  36.4544420  74.1105700  21.1123630  23.1856740
  73.2069780  21.3753830  23.0108400  74.5946320  21.3834800  22.4056700
  76.6532910  20.1689170  21.0951120  77.3624610  19.7472390  20.6098400
  75.9372850  20.2364400  20.4634470  76.3007070  16.2228500  20.1353770
  77.0235200  16.7637440  20.4534990  76.5731590  15.9491920  19.2595310
  75.9899260  15.4734690  30.0376390  76.6375450  14.9232070  29.5971550
  76.4101100  15.7277840  30.8592200  75.7431260  15.6290360  32.7801710
  75.3946080  16.0854180  33.5459890  75.4118960  14.7347490  32.8624140
  77.3495630  28.8009960  36.9454900  77.3065260  28.4302870  37.8269360
  77.4806640  29.7387530  37.0856720  81.0501660  30.3569550  32.5464620
  80.8093020  30.6244110  31.6595140  81.9904300  30.5275280  32.6015480
  83.2556080  16.8202240  36.3021130  83.1944970  17.4124070  37.0516540
  84.1956460  16.7128200  36.1571390  85.8930640  16.4772300  35.9413420
  86.5071050  16.7951590  35.2794500  86.4380200  15.9920890  36.5609280
  76.4151900  15.1566560  36.0552480  76.9634890  14.9754610  35.2918590
  76.4807210  14.3660670  36.5908790  77.1883660  31.7472210  34.0652680
  76.5943980  31.6156910  34.8042720  77.1807500  30.9110350  33.5994780
  86.6338680  15.0404440  32.2682710  85.7598520  15.3739550  32.0655640
  86.5249430  14.5677620  33.0934580  87.5410660  17.2475310  33.6524430
  87.2124020  16.4327070  33.2726160  88.4892960  17.2045120  33.5290120
  76.8195890  29.1130590  33.0160720  76.0929950  28.4935880  32.9486670
  76.8805040  29.5071200  32.1458800  80.4240990  31.3275590  29.8010130
  80.9406010  30.7162950  29.2758390  81.0738370  31.8304370  30.2921140
  83.1636490  32.2184080  30.6279110  83.4514300  31.9638380  29.7512120
  83.6759710  31.6661440  31.2184680  84.3813500  15.9574280  31.2075620
  83.5985290  16.4319780  31.4872380  84.0876430  15.0529110  31.0988800
  88.9334570  16.6597380  29.2524710  89.3742660  16.6042480  28.4046310
  88.6642160  17.5755390  29.3234890  75.1025890  32.4304980  26.2257480
  74.9347930  31.7975660  26.9239370  74.2360400  32.6364380  25.8751670
  75.7253910  16.2621760  23.7289340  76.4833270  16.3750640  23.1553370
  75.2631080  17.0990960  23.6832770  82.2667720  18.3761030  26.7191650
  81.4542230  18.0017920  26.3787530  82.7709360  17.6206110  27.0212840
  86.7692700  15.0403480  27.9574720  87.3722070  15.6123690  28.4323240
  86.0285690  15.6042920  27.7348620  76.7088590  31.1238210  23.6707620
  76.1836210  31.5046240  22.9669580  76.6333170  31.7488980  24.3917330
  78.0979060  16.7885810  22.2691310  78.6271820  16.0015610  22.1399260
  78.7307380  17.4677000  22.5026840  80.2916900  16.5260950  25.3236700
  79.6619640  15.8248260  25.4906830  79.7522040  17.2865080  25.1069860
  83.2308850  33.1400180  37.9947310  84.1576160  32.9044450  38.0383270
  83.2159280  33.9672180  37.5133340  80.4172460  15.8044930  37.7589190
  80.1356730  16.3078530  36.9950010  80.7992160  15.0066680  37.3931320
  79.3081560  33.0720590  22.5456870  80.0400380  32.7879870  21.9980760
  79.5675230  32.8333870  23.4356250  78.4696350  29.1885320  22.5503200
  77.8405230  29.6570420  23.0989030  78.5844180  28.3434540  22.9849390
  87.0187920  15.2198510  38.3369660  86.9053370  15.5393120  39.2321180
  87.8357660  15.6211020  38.0406940  85.9246070  23.2390980   8.7004400
  85.8440120  22.3245590   8.4296110  85.5110490  23.7358050   7.9944110
  84.0564110  25.0170000  10.5813670  83.2806210  24.5370440  10.8712240
  84.7077040  24.3375650  10.4069830  78.0729940  25.3289810  11.4589430
  77.2414820  25.0738520  11.8585940  78.6810920  25.4000580  12.1947350
  88.0771540  29.4230190   9.3612800  87.6153070  28.6517430   9.6899970
  88.8897090  29.4496260   9.8665250  78.0531200  29.3629900  11.6547450
  78.3559240  28.4727640  11.4757670  78.7974790  29.9200120  11.4269700
  76.4821890  20.2891700   5.2431820  75.5938590  20.6307670   5.1411700
  76.7663080  20.0892020   4.3512650  74.4454900  22.8897350  11.1271520
  75.0171010  22.1219550  11.1275160  74.4456440  23.1886110  10.2178130
  84.3034850  31.7088200   8.9816790  83.6846290  32.1645700   8.4111230
  85.1586630  31.8639660   8.5806490  83.4973100  27.6927190  10.5883830
  83.4281380  26.7517130  10.4272960  84.2592960  27.7828600  11.1606400
  75.6879770  18.2981710  12.9140450  75.5082610  17.4007460  13.1943210
  75.2859850  18.8453580  13.5887400  84.5278270  20.4997570  10.8152760
  84.9043090  19.6269450  10.7026430  84.4297780  20.8356270   9.9243200
  78.6583280  18.8723200   6.2770200  78.7650030  19.7726930   6.5838960
  77.7475640  18.8241170   5.9864850  88.3102390  17.9948010   7.7481100
  89.1312010  17.5044580   7.7906580  88.3436470  18.5845670   8.5012940
  76.3066440  20.7942210  11.5222790  76.9876550  21.0580580  12.1410190
  75.9914490  19.9543080  11.8560800  80.4991010  21.8409570  10.6095380
  81.0069230  22.3390540  11.2500400  81.0304250  21.0644770  10.4334740
  78.7827110  16.4808130  14.8758800  78.7845550  16.9980520  14.0704700
  77.9531420  16.0038310  14.8528730  85.1698200  26.5927440   6.3748700
  84.5515470  27.0576890   5.8111420  85.6821450  27.2854920   6.7918210
  80.0329960  26.1203310  13.0532300  79.6999340  26.7472230  13.6953370
  80.2096640  26.6465190  12.2733970  88.5463870  19.9348390  10.5208640
  87.8419440  20.2233280  11.1011750  88.9076030  20.7448500  10.1608200
  78.4642440  18.1918090  12.8829250  78.8059250  19.0360140  12.5883120
  77.5258250  18.3401830  12.9994590  79.2449060  28.0884110  14.8681480
  79.8623060  28.7635190  14.5865930  78.3842180  28.4972090  14.7768980
  74.5381400  27.2783970   3.7488330  74.1609380  27.7671070   3.0173230
  74.7954470  27.9509250   4.3794860  82.1470330  15.6800360   9.2073840
  82.4545310  15.1247250   8.4909340  81.2171030  15.8144820   9.0246830
  87.6985390  31.3967650  11.4981300  87.7112550  30.9929940  10.6303560
  87.1460610  32.1714940  11.3942730  88.9930810  28.1183870   6.5871470
  88.8827140  27.1758200   6.7120890  88.9899060  28.4799510   7.4734230
  87.0970830  26.2997490  12.8263910  87.5139620  26.0857600  11.9917370
  87.8210650  26.5570280  13.3972530  84.5351090  23.7449190   5.9433960
  83.6080370  23.6786570   6.1722430  84.6875910  24.6829320   5.8289200
  84.5220170  20.0166190   2.9401120  83.5823840  20.1780150   3.0253580
  84.8403430  20.7351870   2.3937110  88.5648380  25.3069490   6.4469210
  87.9460800  24.9689040   5.7995510  88.5472830  24.6629250   7.1548400
  88.0074940  21.4854030  13.8635020  87.5946120  22.3107740  14.1175010
  87.2750890  20.8999070  13.6711380  80.1407730  24.2713930   8.7253690
  79.7364730  23.5591180   8.2299590  80.2270850  23.9267170   9.6141730
  80.6089430  27.9581490  10.8892900  80.3117720  27.3526960  10.2100680
  81.5589250  27.9958800  10.7782260  78.8536350  21.0457140  12.5052730
  79.4050940  21.1552480  11.7305980  79.3679860  21.4194740  13.2207960
  88.6975040  31.5313360  14.5516000  88.2205600  32.3385550  14.3588610
  88.0136830  30.8791690  14.7042210  79.7007860  27.6963180  17.5400700
  78.8036390  27.9203150  17.7874100  79.7260730  27.8198120  16.5912100
  86.7413080  24.5456300   3.4541960  87.1806360  23.7078730   3.3079780
  87.4541500  25.1785700   3.5406100  78.5279080  24.5676500  16.1158070
  78.3886850  25.4399300  16.4845470  77.6460440  24.2249310  15.9706010
  84.8508460  29.4852370   7.4223200  85.2904370  30.2276700   7.0078590
  84.7895350  29.7278940   8.3462160  80.3259430  30.5098200  18.3243220
  80.2974860  30.9141150  17.4571650  80.1624400  29.5808560  18.1614820
  76.8412360  23.1658910   6.2260340  76.7209960  23.8921000   5.6141610
  76.5313250  22.3961820   5.7488250  74.4797730  26.3374050  12.0328980
  74.5578150  26.4722820  11.0884700  75.0939410  25.6289940  12.2257100
  75.7245360  28.0374240   8.4435160  75.3173440  28.1788830   7.5888760
  76.6158370  27.7534400   8.2406370  85.5424240  32.1866150  15.3502210
  86.0568910  32.0974160  16.1524640  84.6993320  32.5325850  15.6430120
  87.5178640  32.4721490   4.7786210  87.3579780  32.1824430   5.6768040
  87.3525350  31.6961620   4.2431440  79.9967020  32.2520020   6.5557830
  79.8209500  31.3355560   6.3425630  79.1422760  32.6107310   6.7955630
  87.2204770  29.9809050   3.3384210  86.5269930  29.9786340   2.6786490
  87.9627630  29.5568370   2.9078380  86.7854700  31.6071760   7.4132700
  87.2411650  30.8261140   7.7271320  87.1247220  32.3178580   7.9573880
  74.5357250  27.3788220  14.5723440  74.6988290  26.9093580  13.7542810
  75.0009700  26.8711780  15.2372280  79.3076020  16.5093980   9.6084010
  78.8644170  17.2903520   9.2768530  79.8661010  16.8323870  10.3154950
  83.5945830  19.3762500  15.2119330  83.1325200  19.5845520  16.0239270
  83.1923940  18.5621850  14.9090000  88.5950340  20.5971450  16.3415990
  87.7443930  20.2977200  16.6625060  88.4352130  20.8413460  15.4299810
  85.6900050  22.0973200  18.4414780  86.0153460  21.2636950  18.1017010
  86.4780380  22.6201720  18.5893110  82.4234840  16.1304680   4.4889840
  81.7989020  16.1264550   5.2143150  82.3364960  15.2635640   4.0925810
  81.3451920  17.0541310  11.4673610  81.6424250  17.9604140  11.3865630
  81.8937480  16.5660090  10.8533180  79.0990240  21.6327550   7.3365260
  78.8731160  21.4164720   8.2411880  78.3182770  22.0656010   6.9911230
  86.3288000  21.6390920   5.9355910  85.7296890  22.3626720   5.7519530
  86.8767610  21.5767700   5.1532360  81.5389450  22.5313130  18.0025530
  81.4433050  21.5907860  17.8525930  82.3821430  22.7528200  17.6073600
  84.9352870  20.2754460   7.9659190  85.3282440  20.5926660   7.1527880
  85.2969720  19.3966340   8.0803710  76.6699990  18.9426800  16.1559310
  76.2763380  19.7902010  16.3632090  75.9818390  18.3053170  16.3467950
  83.2445040  19.0261770  19.2256050  82.5543360  18.8333970  19.8602140
  83.9877340  19.3096410  19.7580350  73.9717040  16.8655260  10.1889390
  73.6830090  17.4358120  10.9014370  74.7162800  16.3859710  10.5520620
  85.5208010  22.8660210  12.0609970  84.7889130  23.3747020  12.4100070
  85.1232350  22.0490190  11.7598750  81.9585400  19.5414410  10.4662460
  81.9621460  19.1004360   9.6167000  82.8536520  19.8631740  10.5734280
  77.8087780  19.4240900   9.4256670  77.4687830  19.9016130  10.1823720
  77.0465100  18.9706020   9.0657770  82.0205550  20.5426490   3.4569220
  82.1418370  20.5012970   4.4055040  81.6354060  21.4050640   3.3015950
  85.9833920  18.3193890  11.4732910  86.0006660  18.7702540  12.3174760
  85.7349500  17.4199530  11.6866350  81.0327050  22.8527630   2.8552520
  80.4643950  22.4045880   2.2288430  81.7416050  23.2120410   2.3217670
  89.4104670  15.7326070  17.3119290  89.7350440  15.0015730  17.8377270
  89.4461180  15.4139710  16.4100280  76.1096230  26.7539650  16.7319250
  75.7251020  26.1133320  17.3302210  76.4208420  27.4575770  17.3013980
  82.2593370  23.6016190  12.2127870  82.6263500  23.1274760  12.9589210
  82.0698430  24.4757760  12.5536210  75.1233860  18.3459880   8.3421340
  74.8380780  17.9815550   9.1799960  75.0612720  17.6140340   7.7284480
  80.0492740  22.6424830  14.5312080  79.7449810  23.5216810  14.7562440
  81.0039200  22.7024620  14.5669520  78.5774530  26.8485820   5.1278930
  77.8036790  26.3083440   4.9677650  79.3069160  26.3292430   4.7896690
  84.7972450  17.2389140   5.0634710  83.9837060  16.7402310   4.9880020
  84.6034400  18.0787390   4.6471060  84.7181310  25.9160240  16.8074320
  84.6518620  24.9955910  16.5531910  84.0886450  26.0135680  17.5218960
  87.5120840  21.6108790   3.3596870  88.4000460  21.9226020   3.1848210
  87.4825930  20.7381040   2.9677450  78.6211930  26.5166200   8.7657740
  79.1390600  25.7134460   8.7114630  78.1695950  26.4545340   9.6074570
  83.5081430  27.7832480   4.0385040  83.8497130  28.5274710   3.5428360
  82.6794140  28.0963600   4.4009870  76.1056470  23.4827570  15.6783440
  75.7471410  24.1481420  16.2656780  75.8111030  22.6511120  16.0496060
  79.3069590  23.9411810  18.5622990  79.0069730  24.0868990  17.6650810
  80.0780830  23.3817100  18.4696380  84.6498040  28.7380810  16.5578120
  84.6642580  27.8061770  16.3397030  83.9423140  28.8240570  17.1967890
  86.3908840  27.1048320   9.4030550  86.7432660  26.5076450   8.7431920
  85.5071170  26.7792550   9.5738800  82.4772120  27.8646010   6.8100960
  83.1643250  28.4115220   7.1908550  81.6904540  28.4086740   6.8450570
  74.6164520  23.4818830   2.3018040  75.4859370  23.7643630   2.5853960
  74.1254840  24.2954700   2.1866850  81.7799330  24.8692040   6.4226320
  82.2362110  25.6797290   6.6486510  81.4287540  24.5515180   7.2544810
  84.0831940  30.3798380  13.6518620  84.7274160  30.5857760  14.3292040
  84.4461380  29.6186780  13.1989470  77.6811110  15.2129690   6.8948840
  77.5525740  15.2047590   7.8433760  76.8573130  15.5512780   6.5439850
  85.3564020  28.3830730  12.3696070  85.9986250  27.6823890  12.4828240
  85.8813370  29.1629170  12.1892960  87.1301640  29.1825630  15.5732130
  87.4657880  29.7692320  16.2510050  86.2101980  29.0518340  15.8029920
  74.9835770  32.6946210   2.8679670  75.3433410  33.2935550   2.2136940
  74.8428110  33.2406100   3.6414700  74.6805040  16.9720810  16.3555540
  73.9663560  17.1717730  16.9608150  75.1000080  16.1960380  16.7270340
  88.7835990  26.5851290   3.7549370  88.4957690  27.0463980   4.5427250
  89.5788160  26.1249060   4.0233590  74.9677630  30.9601070  17.3422070
  75.0768750  30.0195810  17.2017460  74.3158190  31.2255820  16.6935800
  82.9590220  29.2316960  18.7420190  82.6387090  28.5126200  19.2865880
  82.2848580  29.9072030  18.8156250  81.0004390  30.0777410   3.6853340
  80.9914490  30.8107100   3.0697850  80.0802750  29.8308990   3.7780300
  76.6011030  25.2992300   4.4300100  75.9938980  26.0391200   4.4395400
  77.0760380  25.3891660   3.6038300  86.1743820  19.4643120  14.1056990
  86.5424640  18.6438330  14.4336560  85.3142020  19.5245010  14.5212640
  89.5405850  18.4200060   4.9144550  88.9119010  18.5245730   4.2002780
  89.0457770  18.6396840   5.7038430  81.5089880  20.6986010   6.3302430
  80.8006030  21.1672350   6.7716040  81.7934360  20.0408020   6.9647620
  83.1345810  22.1182710  14.3294960  83.6331060  22.5928530  14.9946810
  83.2768760  21.1946230  14.5364990  85.5405310  17.4236670   7.7698220
  85.4173090  17.4422800   6.8207730  86.4889870  17.4715610   7.8896620
  82.6282100  32.6591970   7.0426200  82.8823600  32.6213360   6.1205570
  81.6794580  32.5325300   7.0354450  79.7124900  19.0071090   3.7053140
  80.5615430  19.4441240   3.6393330  79.3456170  19.3191350   4.5325200
  88.6334680  23.5783850   8.6184710  87.6924820  23.5934080   8.7932400
  88.9478750  22.7919810   9.0645010  77.3063080  22.6928520   2.8621560
  77.3866670  21.7456030   2.9738960  78.1982830  23.0235400   2.9682220
  78.1077790  32.8423910   9.9656100  78.8440270  32.2939370  10.2364670
  78.4918710  33.7079920   9.8262090  74.9923270  28.9097480   5.8397610
  74.0663050  29.1518620   5.8303020  75.4579700  29.7371740   5.7182360
  77.1136070  32.0269980  19.1541680  77.9148800  32.3482030  19.5677080
  76.5987890  31.6665560  19.8761590  85.9500700  28.1349850  19.1017090
  85.3438860  28.1581450  18.3612840  85.6454810  27.4032890  19.6384340
  87.3801070  31.8630140  17.7126500  88.3322820  31.7788160  17.6626740
  87.2329290  32.5271850  18.3860290  74.8333880  24.5143440  18.0977730
  75.3372900  23.9350720  18.6693960  74.0941300  24.7983670  18.6354100
  81.8871820  25.9214430  17.6313250  81.1217490  26.4899430  17.5467920
  82.0687780  25.6290640  16.7381480  84.9760230  26.2977660   2.2566010
  84.4270330  26.7446960   2.9008750  85.5979490  25.7926910   2.7803680
  89.0295170  27.6519760  18.1888270  89.7704640  27.9895520  17.6855730
  88.2667850  27.8211820  17.6358040  76.8656960  22.6573030  18.9927800
  76.9062300  22.3586900  19.9013030  77.7202460  23.0580640  18.8335320
  80.6435350  25.2568580   4.1531310  81.0651770  25.0908450   4.9962700
  80.7686190  24.4468810   3.6586450  78.8062770  21.2365130  16.9602290
  78.2759230  20.7456080  16.3325630  79.4750840  21.6649330  16.4260220
  87.7040830  25.7034590  16.7243480  88.1181850  25.8579670  17.5733900
  86.7691830  25.8289810  16.8869260  88.1763000  23.0430750  18.7282630
  88.7583770  22.2883070  18.6403110  88.3524770  23.5738190  17.9514110
  79.2935070  18.2027500  17.0399580  79.1991940  17.5848250  16.3150450
  78.7132460  18.9293790  16.8129490  82.0596510  16.7600740  14.0726970
  81.6113810  16.7825000  13.2272520  81.4261710  16.3619760  14.6697270
  82.4656060  25.6555070  14.6939410  82.8844170  26.4987800  14.5215650
  81.5464690  25.7927110  14.4646190  84.8019960  23.3871250  16.0777250
  84.9216170  22.7912390  16.8172090  85.6613960  23.4240940  15.6578550
  87.1407860  23.9408440  14.6539760  86.6143080  24.4651060  14.0504900
  87.4839200  24.5735830  15.2849490  80.3163480  31.9608080  15.8097140
  79.7784570  32.6854140  15.4905840  80.5697440  31.4838420  15.0194480
  81.5688730  19.9292600  17.3353070  82.1588420  19.6208450  18.0230890
  80.7508970  19.4572350  17.4912970  86.3882160  19.5458410  17.5686090
  85.6997680  18.8839950  17.5036080  87.1088180  19.0996680  18.0134550
  87.0182560  16.1410040   3.6276350  87.2984850  15.2977940   3.9835770
  86.2448290  16.3733150   4.1415100  83.1725690  33.1959290  16.0683790
  83.0984390  34.0994430  16.3756160  82.2704530  32.8771190  16.0405860
  83.7211020  32.3617800   3.6910150  84.6161810  32.7002770   3.7128910
  83.7528650  31.6397210   3.0634430  77.3607180  27.7344850   1.9197150
  77.7982050  28.2774520   2.5754730  77.8454910  26.9091800   1.9293490
  74.5752980  30.5233880   9.3717410  74.9055990  29.6554940   9.1396050
  75.0043980  30.7292400  10.2022370  79.1714900  28.8542890   7.0319380
  78.8710440  28.7307860   7.9323290  79.0652390  27.9951480   6.6235110
  75.0643190  31.3904470  12.1099040  74.6274180  31.5705270  12.9423190
  75.6320870  32.1479090  11.9680760  74.8967620  23.9024700   8.4687920
  74.2416460  23.6336340   7.8247620  75.7345570  23.7929180   8.0189900
  89.3857010  27.6173450  14.4952510  88.5716850  28.0470610  14.7578300
  89.7931210  28.2291860  13.8821560  87.8458060  18.6965990   2.6906410
  88.2642940  18.5096970   1.8503070  87.5394120  17.8445040   3.0009340
  75.9343550  24.2877270  13.0091260  76.3016590  24.2004670  13.8887280
  75.3654370  23.5243820  12.9098120  75.4859550  21.1986360  16.9149680
  74.5915600  21.1653120  17.2543390  76.0257100  21.3973150  17.6800930
  74.1105700  21.1123630   4.4113250  73.2069780  21.3753830   4.2364910
  74.5946320  21.3834800   3.6313210  76.6532910  20.1689170   2.3207630
  77.3624610  19.7472390   1.8354910  75.9372850  20.2364400   1.6890980
  75.9899260  15.4734690  11.2632900  76.6375450  14.9232070  10.8228060
  76.4101100  15.7277840  12.0848710  75.7431260  15.6290360  14.0058220
  75.3946080  16.0854180  14.7716400  75.4118960  14.7347490  14.0880650
  77.3495630  28.8009960  18.1711410  77.3065260  28.4302870  19.0525870
  77.4806640  29.7387530  18.3113230  81.0501660  30.3569550  13.7721130
  80.8093020  30.6244110  12.8851650  81.9904300  30.5275280  13.8271990
  83.2556080  16.8202240  17.5277640  83.1944970  17.4124070  18.2773050
  84.1956460  16.7128200  17.3827900  85.8930640  16.4772300  17.1669930
  86.5071050  16.7951590  16.5051010  86.4380200  15.9920890  17.7865790
  76.4151900  15.1566560  17.2808990  76.9634890  14.9754610  16.5175100
  76.4807210  14.3660670  17.8165300  77.1883660  31.7472210  15.2909190
  76.5943980  31.6156910  16.0299230  77.1807500  30.9110350  14.8251290
  86.6338680  15.0404440  13.4939220  85.7598520  15.3739550  13.2912150
  86.5249430  14.5677620  14.3191090  87.5410660  17.2475310  14.8780940
  87.2124020  16.4327070  14.4982670  88.4892960  17.2045120  14.7546630
  76.8195890  29.1130590  14.2417230  76.0929950  28.4935880  14.1743180
  76.8805040  29.5071200  13.3715310  80.4240990  31.3275590  11.0266640
  80.9406010  30.7162950  10.5014900  81.0738370  31.8304370  11.5177650
  83.1636490  32.2184080  11.8535620  83.4514300  31.9638380  10.9768630
  83.6759710  31.6661440  12.4441190  84.3813500  15.9574280  12.4332130
  83.5985290  16.4319780  12.7128890  84.0876430  15.0529110  12.3245310
  88.9334570  16.6597380  10.4781220  89.3742660  16.6042480   9.6302820
  88.6642160  17.5755390  10.5491400  75.1025890  32.4304980   7.4513990
  74.9347930  31.7975660   8.1495880  74.2360400  32.6364380   7.1008180
  75.7253910  16.2621760   4.9545850  76.4833270  16.3750640   4.3809880
  75.2631080  17.0990960   4.9089280  82.2667720  18.3761030   7.9448160
  81.4542230  18.0017920   7.6044040  82.7709360  17.6206110   8.2469350
  86.7692700  15.0403480   9.1831230  87.3722070  15.6123690   9.6579750
  86.0285690  15.6042920   8.9605130  76.7088590  31.1238210   4.8964130
  76.1836210  31.5046240   4.1926090  76.6333170  31.7488980   5.6173840
  78.0979060  16.7885810   3.4947820  78.6271820  16.0015610   3.3655770
  78.7307380  17.4677000   3.7283350  80.2916900  16.5260950   6.5493210
  79.6619640  15.8248260   6.7163340  79.7522040  17.2865080   6.3326370
  83.2308850  33.1400180  19.2203820  84.1576160  32.9044450  19.2639780
  83.2159280  33.9672180  18.7389850  80.4172460  15.8044930  18.9845700
  80.1356730  16.3078530  18.2206520  80.7992160  15.0066680  18.6187830
  79.3081560  33.0720590   3.7713380  80.0400380  32.7879870   3.2237270
  79.5675230  32.8333870   4.6612760  78.4696350  29.1885320   3.7759710
  77.8405230  29.6570420   4.3245540  78.5844180  28.3434540   4.2105900
  87.0187920  15.2198510  19.5626170  86.9053370  15.5393120  20.4577690
  87.8357660  15.6211020  19.2663450  85.9246070   4.4647490  83.7978360
  85.8440120   3.5502100  83.5270070  85.5110490   4.9614560  83.0918070
  84.0564110   6.2426510  85.6787630  83.2806210   5.7626950  85.9686200
  84.7077040   5.5632160  85.5043790  78.0729940   6.5546320  86.5563390
  77.2414820   6.2995030  86.9559900  78.6810920   6.6257090  87.2921310
  88.0771540  10.6486700  84.4586760  87.6153070   9.8773940  84.7873930
  88.8897090  10.6752770  84.9639210  78.0531200  10.5886410  86.7521410
  78.3559240   9.6984150  86.5731630  78.7974790  11.1456630  86.5243660
  74.4454900   4.1153860  86.2245480  75.0171010   3.3476060  86.2249120
  74.4456440   4.4142620  85.3152090  84.3034850  12.9344710  84.0790750
  83.6846290  13.3902210  83.5085190  85.1586630  13.0896170  83.6780450
  83.4973100   8.9183700  85.6857790  83.4281380   7.9773640  85.5246920
  84.2592960   9.0085110  86.2580360  80.4991010   3.0666080  85.7069340
  81.0069230   3.5647050  86.3474360  81.0304250   2.2901280  85.5308700
  85.1698200   7.8183950  81.4722660  84.5515470   8.2833400  80.9085380
  85.6821450   8.5111430  81.8892170  80.0329960   7.3459820  88.1506260
  79.6999340   7.9728740  88.7927330  80.2096640   7.8721700  87.3707930
  79.2449060   9.3140620  89.9655440  79.8623060   9.9891700  89.6839890
  78.3842180   9.7228600  89.8742940  74.5381400   8.5040480  78.8462290
  74.1609380   8.9927580  78.1147190  74.7954470   9.1765760  79.4768820
  87.6985390  12.6224160  86.5955260  87.7112550  12.2186450  85.7277520
  87.1460610  13.3971450  86.4916690  88.9930810   9.3440380  81.6845430
  88.8827140   8.4014710  81.8094850  88.9899060   9.7056020  82.5708190
  87.0970830   7.5254000  87.9237870  87.5139620   7.3114110  87.0891330
  87.8210650   7.7826790  88.4946490  84.5351090   4.9705700  81.0407920
  83.6080370   4.9043080  81.2696390  84.6875910   5.9085830  80.9263160
  88.5648380   6.5326000  81.5443170  87.9460800   6.1945550  80.8969470
  88.5472830   5.8885760  82.2522360  88.0074940   2.7110540  88.9608980
  87.5946120   3.5364250  89.2148970  87.2750890   2.1255580  88.7685340
  80.1407730   5.4970440  83.8227650  79.7364730   4.7847690  83.3273550
  80.2270850   5.1523680  84.7115690  80.6089430   9.1838000  85.9866860
  80.3117720   8.5783470  85.3074640  81.5589250   9.2215310  85.8756220
  78.8536350   2.2713650  87.6026690  79.4050940   2.3808990  86.8279940
  79.3679860   2.6451250  88.3181920  88.6975040  12.7569870  89.6489960
  88.2205600  13.5642060  89.4562570  88.0136830  12.1048200  89.8016170
  79.7007860   8.9219690  92.6374660  78.8036390   9.1459660  92.8848060
  79.7260730   9.0454630  91.6886060  86.7413080   5.7712810  78.5515920
  87.1806360   4.9335240  78.4053740  87.4541500   6.4042210  78.6380060
  78.5279080   5.7933010  91.2132030  78.3886850   6.6655810  91.5819430
  77.6460440   5.4505820  91.0679970  84.8508460  10.7108880  82.5197160
  85.2904370  11.4533210  82.1052550  84.7895350  10.9535450  83.4436120
  80.3259430  11.7354710  93.4217180  80.2974860  12.1397660  92.5545610
  80.1624400  10.8065070  93.2588780  76.8412360   4.3915420  81.3234300
  76.7209960   5.1177510  80.7115570  76.5313250   3.6218330  80.8462210
  74.4797730   7.5630560  87.1302940  74.5578150   7.6979330  86.1858660
  75.0939410   6.8546450  87.3231060  75.7245360   9.2630750  83.5409120
  75.3173440   9.4045340  82.6862720  76.6158370   8.9790910  83.3380330
  85.5424240  13.4122660  90.4476170  86.0568910  13.3230670  91.2498600
  84.6993320  13.7582360  90.7404080  87.5178640  13.6978000  79.8760170
  87.3579780  13.4080940  80.7742000  87.3525350  12.9218130  79.3405400
  79.9967020  13.4776530  81.6531790  79.8209500  12.5612070  81.4399590
  79.1422760  13.8363820  81.8929590  87.2204770  11.2065560  78.4358170
  86.5269930  11.2042850  77.7760450  87.9627630  10.7824880  78.0052340
  86.7854700  12.8328270  82.5106660  87.2411650  12.0517650  82.8245280
  87.1247220  13.5435090  83.0547840  74.5357250   8.6044730  89.6697400
  74.6988290   8.1350090  88.8516770  75.0009700   8.0968290  90.3346240
  88.5950340   1.8227960  91.4389950  87.7443930   1.5233710  91.7599020
  88.4352130   2.0669970  90.5273770  85.6900050   3.3229710  93.5388740
  86.0153460   2.4893460  93.1990970  86.4780380   3.8458230  93.6867070
  79.0990240   2.8584060  82.4339220  78.8731160   2.6421230  83.3385840
  78.3182770   3.2912520  82.0885190  86.3288000   2.8647430  81.0329870
  85.7296890   3.5883230  80.8493490  86.8767610   2.8024210  80.2506320
  81.5389450   3.7569640  93.0999490  81.4433050   2.8164370  92.9499890
  82.3821430   3.9784710  92.7047560  74.1587270   2.0331890  76.4966070
  74.0761940   2.9762650  76.6381060  73.8070330   1.8906800  75.6178420
  85.5208010   4.0916720  87.1583930  84.7889130   4.6003530  87.5074030
  85.1232350   3.2746700  86.8572710  82.0205550   1.7683000  78.5543180
  82.1418370   1.7269480  79.5029000  81.6354060   2.6307150  78.3989910
  81.0327050   4.0784140  77.9526480  80.4643950   3.6302390  77.3262390
  81.7416050   4.4376920  77.4191630  76.1096230   7.9796160  91.8293210
  75.7251020   7.3389830  92.4276170  76.4208420   8.6832280  92.3987940
  82.2593370   4.8272700  87.3101830  82.6263500   4.3531270  88.0563170
  82.0698430   5.7014270  87.6510170  80.0492740   3.8681340  89.6286040
  79.7449810   4.7473320  89.8536400  81.0039200   3.9281130  89.6643480
  78.5774530   8.0742330  80.2252890  77.8036790   7.5339950  80.0651610
  79.3069160   7.5548940  79.8870650  84.7181310   7.1416750  91.9048280
  84.6518620   6.2212420  91.6505870  84.0886450   7.2392190  92.6192920
  87.5120840   2.8365300  78.4570830  88.4000460   3.1482530  78.2822170
  87.4825930   1.9637550  78.0651410  78.6211930   7.7422710  83.8631700
  79.1390600   6.9390970  83.8088590  78.1695950   7.6801850  84.7048530
  83.5081430   9.0088990  79.1359000  83.8497130   9.7531220  78.6402320
  82.6794140   9.3220110  79.4983830  76.1056470   4.7084080  90.7757400
  75.7471410   5.3737930  91.3630740  75.8111030   3.8767630  91.1470020
  79.3069590   5.1668320  93.6596950  79.0069730   5.3125500  92.7624770
  80.0780830   4.6073610  93.5670340  84.6498040   9.9637320  91.6552080
  84.6642580   9.0318280  91.4370990  83.9423140  10.0497080  92.2941850
  86.3908840   8.3304830  84.5004510  86.7432660   7.7332960  83.8405880
  85.5071170   8.0049060  84.6712760  82.4772120   9.0902520  81.9074920
  83.1643250   9.6371730  82.2882510  81.6904540   9.6343250  81.9424530
  74.6164520   4.7075340  77.3992000  75.4859370   4.9900140  77.6827920
  74.1254840   5.5211210  77.2840810  81.7799330   6.0948550  81.5200280
  82.2362110   6.9053800  81.7460470  81.4287540   5.7771690  82.3518770
  84.0831940  11.6054890  88.7492580  84.7274160  11.8114270  89.4266000
  84.4461380  10.8443290  88.2963430  85.3564020   9.6087240  87.4670030
  85.9986250   8.9080400  87.5802200  85.8813370  10.3885680  87.2866920
  89.2019740   9.8935860  77.1909170  88.9757320   9.1766300  77.7833810
  88.8115940   9.6448300  76.3530920  87.1301640  10.4082140  90.6706090
  87.4657880  10.9948830  91.3484010  86.2101980  10.2774850  90.9003880
  74.9835770  13.9202720  77.9653630  75.3433410  14.5192060  77.3110900
  74.8428110  14.4662610  78.7388660  88.7835990   7.8107800  78.8523330
  88.4957690   8.2720490  79.6401210  89.5788160   7.3505570  79.1207550
  74.9677630  12.1857580  92.4396030  75.0768750  11.2452320  92.2991420
  74.3158190  12.4512330  91.7909760  81.0004390  11.3033920  78.7827300
  80.9914490  12.0363610  78.1671810  80.0802750  11.0565500  78.8754260
  76.6011030   6.5248810  79.5274060  75.9938980   7.2647710  79.5369360
  77.0760380   6.6148170  78.7012260  83.9863990  11.3662160  77.4452490
  84.0875970  11.1626150  76.5154470  83.0865730  11.1120440  77.6500270
  83.1345810   3.3439220  89.4268920  83.6331060   3.8185040  90.0920770
  83.2768760   2.4202740  89.6338950  82.6282100  13.8848480  82.1400160
  82.8823600  13.8469870  81.2179530  81.6794580  13.7581810  82.1328410
  88.6334680   4.8040360  83.7158670  87.6924820   4.8190590  83.8906360
  88.9478750   4.0176320  84.1618970  78.6116320   6.4859960  77.2762630
  79.3779590   6.3741320  77.8388060  78.6891010   5.7897930  76.6239400
  77.3063080   3.9185030  77.9595520  77.3866670   2.9712540  78.0712920
  78.1982830   4.2491910  78.0656180  78.1077790  14.0680420  85.0630060
  78.8440270  13.5195880  85.3338630  78.4918710  14.9336430  84.9236050
  74.9923270  10.1353990  80.9371570  74.0663050  10.3775130  80.9276980
  75.4579700  10.9628250  80.8156320  81.2180100  13.2410730  76.8855630
  82.0108710  13.5299560  76.4337420  80.6984450  12.8102900  76.2068110
  87.3801070  13.0886650  92.8100460  88.3322820  13.0044670  92.7600700
  87.2329290  13.7528360  93.4834250  74.8333880   5.7399950  93.1951690
  75.3372900   5.1607230  93.7667920  74.0941300   6.0240180  93.7328060
  81.7357500   8.4614140  76.7497980  81.6308140   7.8466490  77.4759360
  81.5681720   7.9380030  75.9660990  81.8871820   7.1470940  92.7287210
  81.1217490   7.7155940  92.6441880  82.0687780   6.8547150  91.8355440
  84.9760230   7.5234170  77.3539970  84.4270330   7.9703470  77.9982710
  85.5979490   7.0183420  77.8777640  89.0295170   8.8776270  93.2862230
  89.7704640   9.2152030  92.7829690  88.2667850   9.0468330  92.7332000
  80.6435350   6.4825090  79.2505270  81.0651770   6.3164960  80.0936660
  80.7686190   5.6725320  78.7560410  78.8062770   2.4621640  92.0576250
  78.2759230   1.9712590  91.4299590  79.4750840   2.8905840  91.5234180
  83.1562990   5.5062700  76.4982370  83.6768650   4.7911720  76.1323520
  83.8031390   6.1448570  76.7982880  87.7040830   6.9291100  91.8217440
  88.1181850   7.0836180  92.6707860  86.7691830   7.0546320  91.9843220
  88.1763000   4.2687260  93.8256590  88.7583770   3.5139580  93.7377070
  88.3524770   4.7994700  93.0488070  82.4656060   6.8811580  89.7913370
  82.8844170   7.7244310  89.6189610  81.5464690   7.0183620  89.5620150
  84.8019960   4.6127760  91.1751210  84.9216170   4.0168900  91.9146050
  85.6613960   4.6497450  90.7552510  87.1407860   5.1664950  89.7513720
  86.6143080   5.6907570  89.1478860  87.4839200   5.7992340  90.3823450
  79.5394250   2.5558320  76.1963430  79.3383310   1.6925680  76.5576770
  79.3686300   2.4691680  75.2585030  80.3163480  13.1864590  90.9071100
  79.7784570  13.9110650  90.5879800  80.5697440  12.7094930  90.1168440
  83.1725690  14.4215800  91.1657750  83.0984390  15.3250940  91.4730120
  82.2704530  14.1027700  91.1379820  83.7211020  13.5874310  78.7884110
  84.6161810  13.9259280  78.8102870  83.7528650  12.8653720  78.1608390
  77.3607180   8.9601360  77.0171110  77.7982050   9.5031030  77.6728690
  77.8454910   8.1348310  77.0267450  74.5752980  11.7490390  84.4691370
  74.9055990  10.8811450  84.2370010  75.0043980  11.9548910  85.2996330
  79.1714900  10.0799400  82.1293340  78.8710440   9.9564370  83.0297250
  79.0652390   9.2207990  81.7209070  75.0643190  12.6160980  87.2073000
  74.6274180  12.7961780  88.0397150  75.6320870  13.3735600  87.0654720
  74.8967620   5.1281210  83.5661880  74.2416460   4.8592850  82.9221580
  75.7345570   5.0185690  83.1163860  89.3857010   8.8429960  89.5926470
  88.5716850   9.2727120  89.8552260  89.7931210   9.4548370  88.9795520
  75.9343550   5.5133780  88.1065220  76.3016590   5.4261180  88.9861240
  75.3654370   4.7500330  88.0072080  75.4859550   2.4242870  92.0123640
  74.5915600   2.3909630  92.3517350  76.0257100   2.6229660  92.7774890
  74.1105700   2.3380140  79.5087210  73.2069780   2.6010340  79.3338870
  74.5946320   2.6091310  78.7287170  81.0501660  11.5826060  88.8695090
  80.8093020  11.8500620  87.9825610  81.9904300  11.7531790  88.9245950
  77.1883660  12.9728720  90.3883150  76.5943980  12.8413420  91.1273190
  77.1807500  12.1366860  89.9225250  76.8195890  10.3387100  89.3391190
  76.0929950   9.7192390  89.2717140  76.8805040  10.7327710  88.4689270
  80.4240990  12.5532100  86.1240600  80.9406010  11.9419460  85.5988860
  81.0738370  13.0560880  86.6151610  83.1636490  13.4440590  86.9509580
  83.4514300  13.1894890  86.0742590  83.6759710  12.8917950  87.5415150
  75.1025890  13.6561490  82.5487950  74.9347930  13.0232170  83.2469840
  74.2360400  13.8620890  82.1982140  76.7088590  12.3494720  79.9938090
  76.1836210  12.7302750  79.2900050  76.6333170  12.9745490  80.7147800
  79.3081560  14.2977100  78.8687340  80.0400380  14.0136380  78.3211230
  79.5675230  14.0590380  79.7586720  78.4696350  10.4141830  78.8733670
  77.8405230  10.8826930  79.4219500  78.5844180   9.5691050  79.3079860
  85.9246070   4.4647490  65.0234870  85.8440120   3.5502100  64.7526580
  85.5110490   4.9614560  64.3174580  84.0564110   6.2426510  66.9044140
  83.2806210   5.7626950  67.1942710  84.7077040   5.5632160  66.7300300
  78.0729940   6.5546320  67.7819900  77.2414820   6.2995030  68.1816410
  78.6810920   6.6257090  68.5177820  88.0771540  10.6486700  65.6843270
  87.6153070   9.8773940  66.0130440  88.8897090  10.6752770  66.1895720
  78.0531200  10.5886410  67.9777920  78.3559240   9.6984150  67.7988140
  78.7974790  11.1456630  67.7500170  74.4454900   4.1153860  67.4501990
  75.0171010   3.3476060  67.4505630  74.4456440   4.4142620  66.5408600
  84.3034850  12.9344710  65.3047260  83.6846290  13.3902210  64.7341700
  85.1586630  13.0896170  64.9036960  83.4973100   8.9183700  66.9114300
  83.4281380   7.9773640  66.7503430  84.2592960   9.0085110  67.4836870
  80.4991010   3.0666080  66.9325850  81.0069230   3.5647050  67.5730870
  81.0304250   2.2901280  66.7565210  85.1698200   7.8183950  62.6979170
  84.5515470   8.2833400  62.1341890  85.6821450   8.5111430  63.1148680
  80.0329960   7.3459820  69.3762770  79.6999340   7.9728740  70.0183840
  80.2096640   7.8721700  68.5964440  79.2449060   9.3140620  71.1911950
  79.8623060   9.9891700  70.9096400  78.3842180   9.7228600  71.0999450
  74.5381400   8.5040480  60.0718800  74.1609380   8.9927580  59.3403700
  74.7954470   9.1765760  60.7025330  87.6985390  12.6224160  67.8211770
  87.7112550  12.2186450  66.9534030  87.1460610  13.3971450  67.7173200
  88.9930810   9.3440380  62.9101940  88.8827140   8.4014710  63.0351360
  88.9899060   9.7056020  63.7964700  87.0970830   7.5254000  69.1494380
  87.5139620   7.3114110  68.3147840  87.8210650   7.7826790  69.7203000
  84.5351090   4.9705700  62.2664430  83.6080370   4.9043080  62.4952900
  84.6875910   5.9085830  62.1519670  88.5648380   6.5326000  62.7699680
  87.9460800   6.1945550  62.1225980  88.5472830   5.8885760  63.4778870
  88.0074940   2.7110540  70.1865490  87.5946120   3.5364250  70.4405480
  87.2750890   2.1255580  69.9941850  80.1407730   5.4970440  65.0484160
  79.7364730   4.7847690  64.5530060  80.2270850   5.1523680  65.9372200
  80.6089430   9.1838000  67.2123370  80.3117720   8.5783470  66.5331150
  81.5589250   9.2215310  67.1012730  78.8536350   2.2713650  68.8283200
  79.4050940   2.3808990  68.0536450  79.3679860   2.6451250  69.5438430
  88.6975040  12.7569870  70.8746470  88.2205600  13.5642060  70.6819080
  88.0136830  12.1048200  71.0272680  79.7007860   8.9219690  73.8631170
  78.8036390   9.1459660  74.1104570  79.7260730   9.0454630  72.9142570
  86.7413080   5.7712810  59.7772430  87.1806360   4.9335240  59.6310250
  87.4541500   6.4042210  59.8636570  78.5279080   5.7933010  72.4388540
  78.3886850   6.6655810  72.8075940  77.6460440   5.4505820  72.2936480
  84.8508460  10.7108880  63.7453670  85.2904370  11.4533210  63.3309060
  84.7895350  10.9535450  64.6692630  80.3259430  11.7354710  74.6473690
  80.2974860  12.1397660  73.7802120  80.1624400  10.8065070  74.4845290
  76.8412360   4.3915420  62.5490810  76.7209960   5.1177510  61.9372080
  76.5313250   3.6218330  62.0718720  74.4797730   7.5630560  68.3559450
  74.5578150   7.6979330  67.4115170  75.0939410   6.8546450  68.5487570
  75.7245360   9.2630750  64.7665630  75.3173440   9.4045340  63.9119230
  76.6158370   8.9790910  64.5636840  85.5424240  13.4122660  71.6732680
  86.0568910  13.3230670  72.4755110  84.6993320  13.7582360  71.9660590
  87.5178640  13.6978000  61.1016680  87.3579780  13.4080940  61.9998510
  87.3525350  12.9218130  60.5661910  79.9967020  13.4776530  62.8788300
  79.8209500  12.5612070  62.6656100  79.1422760  13.8363820  63.1186100
  87.2204770  11.2065560  59.6614680  86.5269930  11.2042850  59.0016960
  87.9627630  10.7824880  59.2308850  86.7854700  12.8328270  63.7363170
  87.2411650  12.0517650  64.0501790  87.1247220  13.5435090  64.2804350
  74.5357250   8.6044730  70.8953910  74.6988290   8.1350090  70.0773280
  75.0009700   8.0968290  71.5602750  88.5950340   1.8227960  72.6646460
  87.7443930   1.5233710  72.9855530  88.4352130   2.0669970  71.7530280
  85.6900050   3.3229710  74.7645250  86.0153460   2.4893460  74.4247480
  86.4780380   3.8458230  74.9123580  79.0990240   2.8584060  63.6595730
  78.8731160   2.6421230  64.5642350  78.3182770   3.2912520  63.3141700
  86.3288000   2.8647430  62.2586380  85.7296890   3.5883230  62.0750000
  86.8767610   2.8024210  61.4762830  81.5389450   3.7569640  74.3256000
  81.4433050   2.8164370  74.1756400  82.3821430   3.9784710  73.9304070
  74.1587270   2.0331890  57.7222580  74.0761940   2.9762650  57.8637570
  73.8070330   1.8906800  56.8434930  85.5208010   4.0916720  68.3840440
  84.7889130   4.6003530  68.7330540  85.1232350   3.2746700  68.0829220
  82.0205550   1.7683000  59.7799690  82.1418370   1.7269480  60.7285510
  81.6354060   2.6307150  59.6246420  81.0327050   4.0784140  59.1782990
  80.4643950   3.6302390  58.5518900  81.7416050   4.4376920  58.6448140
  76.1096230   7.9796160  73.0549720  75.7251020   7.3389830  73.6532680
  76.4208420   8.6832280  73.6244450  82.2593370   4.8272700  68.5358340
  82.6263500   4.3531270  69.2819680  82.0698430   5.7014270  68.8766680
  80.0492740   3.8681340  70.8542550  79.7449810   4.7473320  71.0792910
  81.0039200   3.9281130  70.8899990  78.5774530   8.0742330  61.4509400
  77.8036790   7.5339950  61.2908120  79.3069160   7.5548940  61.1127160
  84.7181310   7.1416750  73.1304790  84.6518620   6.2212420  72.8762380
  84.0886450   7.2392190  73.8449430  87.5120840   2.8365300  59.6827340
  88.4000460   3.1482530  59.5078680  87.4825930   1.9637550  59.2907920
  78.6211930   7.7422710  65.0888210  79.1390600   6.9390970  65.0345100
  78.1695950   7.6801850  65.9305040  83.5081430   9.0088990  60.3615510
  83.8497130   9.7531220  59.8658830  82.6794140   9.3220110  60.7240340
  76.1056470   4.7084080  72.0013910  75.7471410   5.3737930  72.5887250
  75.8111030   3.8767630  72.3726530  79.3069590   5.1668320  74.8853460
  79.0069730   5.3125500  73.9881280  80.0780830   4.6073610  74.7926850
  84.6498040   9.9637320  72.8808590  84.6642580   9.0318280  72.6627500
  83.9423140  10.0497080  73.5198360  86.3908840   8.3304830  65.7261020
  86.7432660   7.7332960  65.0662390  85.5071170   8.0049060  65.8969270
  82.4772120   9.0902520  63.1331430  83.1643250   9.6371730  63.5139020
  81.6904540   9.6343250  63.1681040  74.6164520   4.7075340  58.6248510
  75.4859370   4.9900140  58.9084430  74.1254840   5.5211210  58.5097320
  81.7799330   6.0948550  62.7456790  82.2362110   6.9053800  62.9716980
  81.4287540   5.7771690  63.5775280  84.0831940  11.6054890  69.9749090
  84.7274160  11.8114270  70.6522510  84.4461380  10.8443290  69.5219940
  85.3564020   9.6087240  68.6926540  85.9986250   8.9080400  68.8058710
  85.8813370  10.3885680  68.5123430  89.2019740   9.8935860  58.4165680
  88.9757320   9.1766300  59.0090320  88.8115940   9.6448300  57.5787430
  87.1301640  10.4082140  71.8962600  87.4657880  10.9948830  72.5740520
  86.2101980  10.2774850  72.1260390  74.9835770  13.9202720  59.1910140
  75.3433410  14.5192060  58.5367410  74.8428110  14.4662610  59.9645170
  88.7835990   7.8107800  60.0779840  88.4957690   8.2720490  60.8657720
  89.5788160   7.3505570  60.3464060  74.9677630  12.1857580  73.6652540
  75.0768750  11.2452320  73.5247930  74.3158190  12.4512330  73.0166270
  82.9590220  10.4573470  75.0650660  82.6387090   9.7382710  75.6096350
  82.2848580  11.1328540  75.1386720  81.0004390  11.3033920  60.0083810
  80.9914490  12.0363610  59.3928320  80.0802750  11.0565500  60.1010770
  76.6011030   6.5248810  60.7530570  75.9938980   7.2647710  60.7625870
  77.0760380   6.6148170  59.9268770  83.9863990  11.3662160  58.6709000
  84.0875970  11.1626150  57.7410980  83.0865730  11.1120440  58.8756780
  83.1345810   3.3439220  70.6525430  83.6331060   3.8185040  71.3177280
  83.2768760   2.4202740  70.8595460  82.6282100  13.8848480  63.3656670
  82.8823600  13.8469870  62.4436040  81.6794580  13.7581810  63.3584920
  88.6334680   4.8040360  64.9415180  87.6924820   4.8190590  65.1162870
  88.9478750   4.0176320  65.3875480  78.6116320   6.4859960  58.5019140
  79.3779590   6.3741320  59.0644570  78.6891010   5.7897930  57.8495910
  77.3063080   3.9185030  59.1852030  77.3866670   2.9712540  59.2969430
  78.1982830   4.2491910  59.2912690  78.1077790  14.0680420  66.2886570
  78.8440270  13.5195880  66.5595140  78.4918710  14.9336430  66.1492560
  74.9923270  10.1353990  62.1628080  74.0663050  10.3775130  62.1533490
  75.4579700  10.9628250  62.0412830  77.1136070  13.2526490  75.4772150
  77.9148800  13.5738540  75.8907550  76.5987890  12.8922070  76.1992060
  81.2180100  13.2410730  58.1112140  82.0108710  13.5299560  57.6593930
  80.6984450  12.8102900  57.4324620  85.9500700   9.3606360  75.4247560
  85.3438860   9.3837960  74.6843310  85.6454810   8.6289400  75.9614810
  87.3801070  13.0886650  74.0356970  88.3322820  13.0044670  73.9857210
  87.2329290  13.7528360  74.7090760  74.8333880   5.7399950  74.4208200
  75.3372900   5.1607230  74.9924430  74.0941300   6.0240180  74.9584570
  81.7357500   8.4614140  57.9754490  81.6308140   7.8466490  58.7015870
  81.5681720   7.9380030  57.1917500  81.8871820   7.1470940  73.9543720
  81.1217490   7.7155940  73.8698390  82.0687780   6.8547150  73.0611950
  84.9760230   7.5234170  58.5796480  84.4270330   7.9703470  59.2239220
  85.5979490   7.0183420  59.1034150  89.0295170   8.8776270  74.5118740
  89.7704640   9.2152030  74.0086200  88.2667850   9.0468330  73.9588510
  76.8656960   3.8829540  75.3158270  76.9062300   3.5843410  76.2243500
  77.7202460   4.2837150  75.1565790  80.6435350   6.4825090  60.4761780
  81.0651770   6.3164960  61.3193170  80.7686190   5.6725320  59.9816920
  78.8062770   2.4621640  73.2832760  78.2759230   1.9712590  72.6556100
  79.4750840   2.8905840  72.7490690  83.1562990   5.5062700  57.7238880
  83.6768650   4.7911720  57.3580030  83.8031390   6.1448570  58.0239390
  87.7040830   6.9291100  73.0473950  88.1181850   7.0836180  73.8964370
  86.7691830   7.0546320  73.2099730  88.1763000   4.2687260  75.0513100
  88.7583770   3.5139580  74.9633580  88.3524770   4.7994700  74.2744580
  82.4656060   6.8811580  71.0169880  82.8844170   7.7244310  70.8446120
  81.5464690   7.0183620  70.7876660  84.8019960   4.6127760  72.4007720
  84.9216170   4.0168900  73.1402560  85.6613960   4.6497450  71.9809020
  87.1407860   5.1664950  70.9770230  86.6143080   5.6907570  70.3735370
  87.4839200   5.7992340  71.6079960  79.5394250   2.5558320  57.4219940
  79.3383310   1.6925680  57.7833280  79.3686300   2.4691680  56.4841540
  80.3163480  13.1864590  72.1327610  79.7784570  13.9110650  71.8136310
  80.5697440  12.7094930  71.3424950  83.1725690  14.4215800  72.3914260
  83.0984390  15.3250940  72.6986630  82.2704530  14.1027700  72.3636330
  83.7211020  13.5874310  60.0140620  84.6161810  13.9259280  60.0359380
  83.7528650  12.8653720  59.3864900  77.3607180   8.9601360  58.2427620
  77.7982050   9.5031030  58.8985200  77.8454910   8.1348310  58.2523960
  74.5752980  11.7490390  65.6947880  74.9055990  10.8811450  65.4626520
  75.0043980  11.9548910  66.5252840  79.1714900  10.0799400  63.3549850
  78.8710440   9.9564370  64.2553760  79.0652390   9.2207990  62.9465580
  75.0643190  12.6160980  68.4329510  74.6274180  12.7961780  69.2653660
  75.6320870  13.3735600  68.2911230  74.8967620   5.1281210  64.7918390
  74.2416460   4.8592850  64.1478090  75.7345570   5.0185690  64.3420370
  89.3857010   8.8429960  70.8182980  88.5716850   9.2727120  71.0808770
  89.7931210   9.4548370  70.2052030  75.9343550   5.5133780  69.3321730
  76.3016590   5.4261180  70.2117750  75.3654370   4.7500330  69.2328590
  75.4859550   2.4242870  73.2380150  74.5915600   2.3909630  73.5773860
  76.0257100   2.6229660  74.0031400  74.1105700   2.3380140  60.7343720
  73.2069780   2.6010340  60.5595380  74.5946320   2.6091310  59.9543680
  77.3495630  10.0266470  74.4941880  77.3065260   9.6559380  75.3756340
  77.4806640  10.9644040  74.6343700  81.0501660  11.5826060  70.0951600
  80.8093020  11.8500620  69.2082120  81.9904300  11.7531790  70.1502460
  77.1883660  12.9728720  71.6139660  76.5943980  12.8413420  72.3529700
  77.1807500  12.1366860  71.1481760  76.8195890  10.3387100  70.5647700
  76.0929950   9.7192390  70.4973650  76.8805040  10.7327710  69.6945780
  80.4240990  12.5532100  67.3497110  80.9406010  11.9419460  66.8245370
  81.0738370  13.0560880  67.8408120  83.1636490  13.4440590  68.1766090
  83.4514300  13.1894890  67.2999100  83.6759710  12.8917950  68.7671660
  75.1025890  13.6561490  63.7744460  74.9347930  13.0232170  64.4726350
  74.2360400  13.8620890  63.4238650  76.7088590  12.3494720  61.2194600
  76.1836210  12.7302750  60.5156560  76.6333170  12.9745490  61.9404310
  83.2308850  14.3656690  75.5434290  84.1576160  14.1300960  75.5870250
  83.2159280  15.1928690  75.0620320  79.3081560  14.2977100  60.0943850
  80.0400380  14.0136380  59.5467740  79.5675230  14.0590380  60.9843230
  78.4696350  10.4141830  60.0990180  77.8405230  10.8826930  60.6476010
  78.5844180   9.5691050  60.5336370  85.9246070   4.4647490  46.2491380
  85.8440120   3.5502100  45.9783090  85.5110490   4.9614560  45.5431090
  84.0564110   6.2426510  48.1300650  83.2806210   5.7626950  48.4199220
  84.7077040   5.5632160  47.9556810  78.0729940   6.5546320  49.0076410
  77.2414820   6.2995030  49.4072920  78.6810920   6.6257090  49.7434330
  88.0771540  10.6486700  46.9099780  87.6153070   9.8773940  47.2386950
  88.8897090  10.6752770  47.4152230  78.0531200  10.5886410  49.2034430
  78.3559240   9.6984150  49.0244650  78.7974790  11.1456630  48.9756680
  74.4454900   4.1153860  48.6758500  75.0171010   3.3476060  48.6762140
  74.4456440   4.4142620  47.7665110  84.3034850  12.9344710  46.5303770
  83.6846290  13.3902210  45.9598210  85.1586630  13.0896170  46.1293470
  83.4973100   8.9183700  48.1370810  83.4281380   7.9773640  47.9759940
  84.2592960   9.0085110  48.7093380  80.4991010   3.0666080  48.1582360
  81.0069230   3.5647050  48.7987380  81.0304250   2.2901280  47.9821720
  85.1698200   7.8183950  43.9235680  84.5515470   8.2833400  43.3598400
  85.6821450   8.5111430  44.3405190  80.0329960   7.3459820  50.6019280
  79.6999340   7.9728740  51.2440350  80.2096640   7.8721700  49.8220950
  79.2449060   9.3140620  52.4168460  79.8623060   9.9891700  52.1352910
  78.3842180   9.7228600  52.3255960  74.5381400   8.5040480  41.2975310
  74.1609380   8.9927580  40.5660210  74.7954470   9.1765760  41.9281840
  87.6985390  12.6224160  49.0468280  87.7112550  12.2186450  48.1790540
  87.1460610  13.3971450  48.9429710  88.9930810   9.3440380  44.1358450
  88.8827140   8.4014710  44.2607870  88.9899060   9.7056020  45.0221210
  87.0970830   7.5254000  50.3750890  87.5139620   7.3114110  49.5404350
  87.8210650   7.7826790  50.9459510  84.5351090   4.9705700  43.4920940
  83.6080370   4.9043080  43.7209410  84.6875910   5.9085830  43.3776180
  88.5648380   6.5326000  43.9956190  87.9460800   6.1945550  43.3482490
  88.5472830   5.8885760  44.7035380  88.0074940   2.7110540  51.4122000
  87.5946120   3.5364250  51.6661990  87.2750890   2.1255580  51.2198360
  80.1407730   5.4970440  46.2740670  79.7364730   4.7847690  45.7786570
  80.2270850   5.1523680  47.1628710  80.6089430   9.1838000  48.4379880
  80.3117720   8.5783470  47.7587660  81.5589250   9.2215310  48.3269240
  78.8536350   2.2713650  50.0539710  79.4050940   2.3808990  49.2792960
  79.3679860   2.6451250  50.7694940  88.6975040  12.7569870  52.1002980
  88.2205600  13.5642060  51.9075590  88.0136830  12.1048200  52.2529190
  79.7007860   8.9219690  55.0887680  78.8036390   9.1459660  55.3361080
  79.7260730   9.0454630  54.1399080  86.7413080   5.7712810  41.0028940
  87.1806360   4.9335240  40.8566760  87.4541500   6.4042210  41.0893080
  78.5279080   5.7933010  53.6645050  78.3886850   6.6655810  54.0332450
  77.6460440   5.4505820  53.5192990  84.8508460  10.7108880  44.9710180
  85.2904370  11.4533210  44.5565570  84.7895350  10.9535450  45.8949140
  80.3259430  11.7354710  55.8730200  80.2974860  12.1397660  55.0058630
  80.1624400  10.8065070  55.7101800  76.8412360   4.3915420  43.7747320
  76.7209960   5.1177510  43.1628590  76.5313250   3.6218330  43.2975230
  74.4797730   7.5630560  49.5815960  74.5578150   7.6979330  48.6371680
  75.0939410   6.8546450  49.7744080  75.7245360   9.2630750  45.9922140
  75.3173440   9.4045340  45.1375740  76.6158370   8.9790910  45.7893350
  85.5424240  13.4122660  52.8989190  86.0568910  13.3230670  53.7011620
  84.6993320  13.7582360  53.1917100  87.5178640  13.6978000  42.3273190
  87.3579780  13.4080940  43.2255020  87.3525350  12.9218130  41.7918420
  79.9967020  13.4776530  44.1044810  79.8209500  12.5612070  43.8912610
  79.1422760  13.8363820  44.3442610  87.2204770  11.2065560  40.8871190
  86.5269930  11.2042850  40.2273470  87.9627630  10.7824880  40.4565360
  86.7854700  12.8328270  44.9619680  87.2411650  12.0517650  45.2758300
  87.1247220  13.5435090  45.5060860  74.5357250   8.6044730  52.1210420
  74.6988290   8.1350090  51.3029790  75.0009700   8.0968290  52.7859260
  88.5950340   1.8227960  53.8902970  87.7443930   1.5233710  54.2112040
  88.4352130   2.0669970  52.9786790  85.6900050   3.3229710  55.9901760
  86.0153460   2.4893460  55.6503990  86.4780380   3.8458230  56.1380090
  79.0990240   2.8584060  44.8852240  78.8731160   2.6421230  45.7898860
  78.3182770   3.2912520  44.5398210  86.3288000   2.8647430  43.4842890
  85.7296890   3.5883230  43.3006510  86.8767610   2.8024210  42.7019340
  81.5389450   3.7569640  55.5512510  81.4433050   2.8164370  55.4012910
  82.3821430   3.9784710  55.1560580  74.1587270   2.0331890  38.9479090
  74.0761940   2.9762650  39.0894080  73.8070330   1.8906800  38.0691440
  85.5208010   4.0916720  49.6096950  84.7889130   4.6003530  49.9587050
  85.1232350   3.2746700  49.3085730  82.0205550   1.7683000  41.0056200
  82.1418370   1.7269480  41.9542020  81.6354060   2.6307150  40.8502930
  81.0327050   4.0784140  40.4039500  80.4643950   3.6302390  39.7775410
  81.7416050   4.4376920  39.8704650  76.1096230   7.9796160  54.2806230
  75.7251020   7.3389830  54.8789190  76.4208420   8.6832280  54.8500960
  82.2593370   4.8272700  49.7614850  82.6263500   4.3531270  50.5076190
  82.0698430   5.7014270  50.1023190  80.0492740   3.8681340  52.0799060
  79.7449810   4.7473320  52.3049420  81.0039200   3.9281130  52.1156500
  78.5774530   8.0742330  42.6765910  77.8036790   7.5339950  42.5164630
  79.3069160   7.5548940  42.3383670  84.7181310   7.1416750  54.3561300
  84.6518620   6.2212420  54.1018890  84.0886450   7.2392190  55.0705940
  87.5120840   2.8365300  40.9083850  88.4000460   3.1482530  40.7335190
  87.4825930   1.9637550  40.5164430  78.6211930   7.7422710  46.3144720
  79.1390600   6.9390970  46.2601610  78.1695950   7.6801850  47.1561550
  83.5081430   9.0088990  41.5872020  83.8497130   9.7531220  41.0915340
  82.6794140   9.3220110  41.9496850  76.1056470   4.7084080  53.2270420
  75.7471410   5.3737930  53.8143760  75.8111030   3.8767630  53.5983040
  79.3069590   5.1668320  56.1109970  79.0069730   5.3125500  55.2137790
  80.0780830   4.6073610  56.0183360  84.6498040   9.9637320  54.1065100
  84.6642580   9.0318280  53.8884010  83.9423140  10.0497080  54.7454870
  86.3908840   8.3304830  46.9517530  86.7432660   7.7332960  46.2918900
  85.5071170   8.0049060  47.1225780  82.4772120   9.0902520  44.3587940
  83.1643250   9.6371730  44.7395530  81.6904540   9.6343250  44.3937550
  74.6164520   4.7075340  39.8505020  75.4859370   4.9900140  40.1340940
  74.1254840   5.5211210  39.7353830  81.7799330   6.0948550  43.9713300
  82.2362110   6.9053800  44.1973490  81.4287540   5.7771690  44.8031790
  84.0831940  11.6054890  51.2005600  84.7274160  11.8114270  51.8779020
  84.4461380  10.8443290  50.7476450  85.3564020   9.6087240  49.9183050
  85.9986250   8.9080400  50.0315220  85.8813370  10.3885680  49.7379940
  89.2019740   9.8935860  39.6422190  88.9757320   9.1766300  40.2346830
  88.8115940   9.6448300  38.8043940  87.1301640  10.4082140  53.1219110
  87.4657880  10.9948830  53.7997030  86.2101980  10.2774850  53.3516900
  74.9835770  13.9202720  40.4166650  75.3433410  14.5192060  39.7623920
  74.8428110  14.4662610  41.1901680  88.7835990   7.8107800  41.3036350
  88.4957690   8.2720490  42.0914230  89.5788160   7.3505570  41.5720570
  74.9677630  12.1857580  54.8909050  75.0768750  11.2452320  54.7504440
  74.3158190  12.4512330  54.2422780  82.9590220  10.4573470  56.2907170
  82.6387090   9.7382710  56.8352860  82.2848580  11.1328540  56.3643230
  81.0004390  11.3033920  41.2340320  80.9914490  12.0363610  40.6184830
  80.0802750  11.0565500  41.3267280  76.6011030   6.5248810  41.9787080
  75.9938980   7.2647710  41.9882380  77.0760380   6.6148170  41.1525280
  83.9863990  11.3662160  39.8965510  84.0875970  11.1626150  38.9667490
  83.0865730  11.1120440  40.1013290  83.1345810   3.3439220  51.8781940
  83.6331060   3.8185040  52.5433790  83.2768760   2.4202740  52.0851970
  82.6282100  13.8848480  44.5913180  82.8823600  13.8469870  43.6692550
  81.6794580  13.7581810  44.5841430  88.6334680   4.8040360  46.1671690
  87.6924820   4.8190590  46.3419380  88.9478750   4.0176320  46.6131990
  78.6116320   6.4859960  39.7275650  79.3779590   6.3741320  40.2901080
  78.6891010   5.7897930  39.0752420  77.3063080   3.9185030  40.4108540
  77.3866670   2.9712540  40.5225940  78.1982830   4.2491910  40.5169200
  78.1077790  14.0680420  47.5143080  78.8440270  13.5195880  47.7851650
  78.4918710  14.9336430  47.3749070  74.9923270  10.1353990  43.3884590
  74.0663050  10.3775130  43.3790000  75.4579700  10.9628250  43.2669340
  77.1136070  13.2526490  56.7028660  77.9148800  13.5738540  57.1164060
  76.5987890  12.8922070  57.4248570  81.2180100  13.2410730  39.3368650
  82.0108710  13.5299560  38.8850440  80.6984450  12.8102900  38.6581130
  85.9500700   9.3606360  56.6504070  85.3438860   9.3837960  55.9099820
  85.6454810   8.6289400  57.1871320  87.3801070  13.0886650  55.2613480
  88.3322820  13.0044670  55.2113720  87.2329290  13.7528360  55.9347270
  74.8333880   5.7399950  55.6464710  75.3372900   5.1607230  56.2180940
  74.0941300   6.0240180  56.1841080  81.7357500   8.4614140  39.2011000
  81.6308140   7.8466490  39.9272380  81.5681720   7.9380030  38.4174010
  81.8871820   7.1470940  55.1800230  81.1217490   7.7155940  55.0954900
  82.0687780   6.8547150  54.2868460  84.9760230   7.5234170  39.8052990
  84.4270330   7.9703470  40.4495730  85.5979490   7.0183420  40.3290660
  89.0295170   8.8776270  55.7375250  89.7704640   9.2152030  55.2342710
  88.2667850   9.0468330  55.1845020  76.8656960   3.8829540  56.5414780
  76.9062300   3.5843410  57.4500010  77.7202460   4.2837150  56.3822300
  80.6435350   6.4825090  41.7018290  81.0651770   6.3164960  42.5449680
  80.7686190   5.6725320  41.2073430  78.8062770   2.4621640  54.5089270
  78.2759230   1.9712590  53.8812610  79.4750840   2.8905840  53.9747200
  83.1562990   5.5062700  38.9495390  83.6768650   4.7911720  38.5836540
  83.8031390   6.1448570  39.2495900  87.7040830   6.9291100  54.2730460
  88.1181850   7.0836180  55.1220880  86.7691830   7.0546320  54.4356240
  88.1763000   4.2687260  56.2769610  88.7583770   3.5139580  56.1890090
  88.3524770   4.7994700  55.5001090  82.4656060   6.8811580  52.2426390
  82.8844170   7.7244310  52.0702630  81.5464690   7.0183620  52.0133170
  84.8019960   4.6127760  53.6264230  84.9216170   4.0168900  54.3659070
  85.6613960   4.6497450  53.2065530  87.1407860   5.1664950  52.2026740
  86.6143080   5.6907570  51.5991880  87.4839200   5.7992340  52.8336470
  79.5394250   2.5558320  38.6476450  79.3383310   1.6925680  39.0089790
  79.3686300   2.4691680  37.7098050  80.3163480  13.1864590  53.3584120
  79.7784570  13.9110650  53.0392820  80.5697440  12.7094930  52.5681460
  83.1725690  14.4215800  53.6170770  83.0984390  15.3250940  53.9243140
  82.2704530  14.1027700  53.5892840  83.7211020  13.5874310  41.2397130
  84.6161810  13.9259280  41.2615890  83.7528650  12.8653720  40.6121410
  77.3607180   8.9601360  39.4684130  77.7982050   9.5031030  40.1241710
  77.8454910   8.1348310  39.4780470  74.5752980  11.7490390  46.9204390
  74.9055990  10.8811450  46.6883030  75.0043980  11.9548910  47.7509350
  79.1714900  10.0799400  44.5806360  78.8710440   9.9564370  45.4810270
  79.0652390   9.2207990  44.1722090  75.0643190  12.6160980  49.6586020
  74.6274180  12.7961780  50.4910170  75.6320870  13.3735600  49.5167740
  74.8967620   5.1281210  46.0174900  74.2416460   4.8592850  45.3734600
  75.7345570   5.0185690  45.5676880  89.3857010   8.8429960  52.0439490
  88.5716850   9.2727120  52.3065280  89.7931210   9.4548370  51.4308540
  75.9343550   5.5133780  50.5578240  76.3016590   5.4261180  51.4374260
  75.3654370   4.7500330  50.4585100  75.4859550   2.4242870  54.4636660
  74.5915600   2.3909630  54.8030370  76.0257100   2.6229660  55.2287910
  74.1105700   2.3380140  41.9600230  73.2069780   2.6010340  41.7851890
  74.5946320   2.6091310  41.1800190  77.3495630  10.0266470  55.7198390
  77.3065260   9.6559380  56.6012850  77.4806640  10.9644040  55.8600210
  81.0501660  11.5826060  51.3208110  80.8093020  11.8500620  50.4338630
  81.9904300  11.7531790  51.3758970  77.1883660  12.9728720  52.8396170
  76.5943980  12.8413420  53.5786210  77.1807500  12.1366860  52.3738270
  76.8195890  10.3387100  51.7904210  76.0929950   9.7192390  51.7230160
  76.8805040  10.7327710  50.9202290  80.4240990  12.5532100  48.5753620
  80.9406010  11.9419460  48.0501880  81.0738370  13.0560880  49.0664630
  83.1636490  13.4440590  49.4022600  83.4514300  13.1894890  48.5255610
  83.6759710  12.8917950  49.9928170  75.1025890  13.6561490  45.0000970
  74.9347930  13.0232170  45.6982860  74.2360400  13.8620890  44.6495160
  76.7088590  12.3494720  42.4451110  76.1836210  12.7302750  41.7413070
  76.6333170  12.9745490  43.1660820  83.2308850  14.3656690  56.7690800
  84.1576160  14.1300960  56.8126760  83.2159280  15.1928690  56.2876830
  79.3081560  14.2977100  41.3200360  80.0400380  14.0136380  40.7724250
  79.5675230  14.0590380  42.2099740  78.4696350  10.4141830  41.3246690
  77.8405230  10.8826930  41.8732520  78.5844180   9.5691050  41.7592880
  85.9246070   4.4647490  27.4747890  85.8440120   3.5502100  27.2039600
  85.5110490   4.9614560  26.7687600  84.0564110   6.2426510  29.3557160
  83.2806210   5.7626950  29.6455730  84.7077040   5.5632160  29.1813320
  78.0729940   6.5546320  30.2332920  77.2414820   6.2995030  30.6329430
  78.6810920   6.6257090  30.9690840  88.0771540  10.6486700  28.1356290
  87.6153070   9.8773940  28.4643460  88.8897090  10.6752770  28.6408740
  78.0531200  10.5886410  30.4290940  78.3559240   9.6984150  30.2501160
  78.7974790  11.1456630  30.2013190  74.4454900   4.1153860  29.9015010
  75.0171010   3.3476060  29.9018650  74.4456440   4.4142620  28.9921620
  84.3034850  12.9344710  27.7560280  83.6846290  13.3902210  27.1854720
  85.1586630  13.0896170  27.3549980  83.4973100   8.9183700  29.3627320
  83.4281380   7.9773640  29.2016450  84.2592960   9.0085110  29.9349890
  80.4991010   3.0666080  29.3838870  81.0069230   3.5647050  30.0243890
  81.0304250   2.2901280  29.2078230  85.1698200   7.8183950  25.1492190
  84.5515470   8.2833400  24.5854910  85.6821450   8.5111430  25.5661700
  80.0329960   7.3459820  31.8275790  79.6999340   7.9728740  32.4696860
  80.2096640   7.8721700  31.0477460  79.2449060   9.3140620  33.6424970
  79.8623060   9.9891700  33.3609420  78.3842180   9.7228600  33.5512470
  74.5381400   8.5040480  22.5231820  74.1609380   8.9927580  21.7916720
  74.7954470   9.1765760  23.1538350  87.6985390  12.6224160  30.2724790
  87.7112550  12.2186450  29.4047050  87.1460610  13.3971450  30.1686220
  88.9930810   9.3440380  25.3614960  88.8827140   8.4014710  25.4864380
  88.9899060   9.7056020  26.2477720  87.0970830   7.5254000  31.6007400
  87.5139620   7.3114110  30.7660860  87.8210650   7.7826790  32.1716020
  84.5351090   4.9705700  24.7177450  83.6080370   4.9043080  24.9465920
  84.6875910   5.9085830  24.6032690  88.5648380   6.5326000  25.2212700
  87.9460800   6.1945550  24.5739000  88.5472830   5.8885760  25.9291890
  88.0074940   2.7110540  32.6378510  87.5946120   3.5364250  32.8918500
  87.2750890   2.1255580  32.4454870  80.1407730   5.4970440  27.4997180
  79.7364730   4.7847690  27.0043080  80.2270850   5.1523680  28.3885220
  80.6089430   9.1838000  29.6636390  80.3117720   8.5783470  28.9844170
  81.5589250   9.2215310  29.5525750  78.8536350   2.2713650  31.2796220
  79.4050940   2.3808990  30.5049470  79.3679860   2.6451250  31.9951450
  88.6975040  12.7569870  33.3259490  88.2205600  13.5642060  33.1332100
  88.0136830  12.1048200  33.4785700  79.7007860   8.9219690  36.3144190
  78.8036390   9.1459660  36.5617590  79.7260730   9.0454630  35.3655590
  86.7413080   5.7712810  22.2285450  87.1806360   4.9335240  22.0823270
  87.4541500   6.4042210  22.3149590  78.5279080   5.7933010  34.8901560
  78.3886850   6.6655810  35.2588960  77.6460440   5.4505820  34.7449500
  84.8508460  10.7108880  26.1966690  85.2904370  11.4533210  25.7822080
  84.7895350  10.9535450  27.1205650  80.3259430  11.7354710  37.0986710
  80.2974860  12.1397660  36.2315140  80.1624400  10.8065070  36.9358310
  76.8412360   4.3915420  25.0003830  76.7209960   5.1177510  24.3885100
  76.5313250   3.6218330  24.5231740  74.4797730   7.5630560  30.8072470
  74.5578150   7.6979330  29.8628190  75.0939410   6.8546450  31.0000590
  75.7245360   9.2630750  27.2178650  75.3173440   9.4045340  26.3632250
  76.6158370   8.9790910  27.0149860  85.5424240  13.4122660  34.1245700
  86.0568910  13.3230670  34.9268130  84.6993320  13.7582360  34.4173610
  87.5178640  13.6978000  23.5529700  87.3579780  13.4080940  24.4511530
  87.3525350  12.9218130  23.0174930  79.9967020  13.4776530  25.3301320
  79.8209500  12.5612070  25.1169120  79.1422760  13.8363820  25.5699120
  87.2204770  11.2065560  22.1127700  86.5269930  11.2042850  21.4529980
  87.9627630  10.7824880  21.6821870  86.7854700  12.8328270  26.1876190
  87.2411650  12.0517650  26.5014810  87.1247220  13.5435090  26.7317370
  74.5357250   8.6044730  33.3466930  74.6988290   8.1350090  32.5286300
  75.0009700   8.0968290  34.0115770  88.5950340   1.8227960  35.1159480
  87.7443930   1.5233710  35.4368550  88.4352130   2.0669970  34.2043300
  85.6900050   3.3229710  37.2158270  86.0153460   2.4893460  36.8760500
  86.4780380   3.8458230  37.3636600  79.0990240   2.8584060  26.1108750
  78.8731160   2.6421230  27.0155370  78.3182770   3.2912520  25.7654720
  86.3288000   2.8647430  24.7099400  85.7296890   3.5883230  24.5263020
  86.8767610   2.8024210  23.9275850  81.5389450   3.7569640  36.7769020
  81.4433050   2.8164370  36.6269420  82.3821430   3.9784710  36.3817090
  74.1587270   2.0331890  20.1735600  74.0761940   2.9762650  20.3150590
  73.8070330   1.8906800  19.2947950  85.5208010   4.0916720  30.8353460
  84.7889130   4.6003530  31.1843560  85.1232350   3.2746700  30.5342240
  82.0205550   1.7683000  22.2312710  82.1418370   1.7269480  23.1798530
  81.6354060   2.6307150  22.0759440  81.0327050   4.0784140  21.6296010
  80.4643950   3.6302390  21.0031920  81.7416050   4.4376920  21.0961160
  76.1096230   7.9796160  35.5062740  75.7251020   7.3389830  36.1045700
  76.4208420   8.6832280  36.0757470  82.2593370   4.8272700  30.9871360
  82.6263500   4.3531270  31.7332700  82.0698430   5.7014270  31.3279700
  80.0492740   3.8681340  33.3055570  79.7449810   4.7473320  33.5305930
  81.0039200   3.9281130  33.3413010  78.5774530   8.0742330  23.9022420
  77.8036790   7.5339950  23.7421140  79.3069160   7.5548940  23.5640180
  84.7181310   7.1416750  35.5817810  84.6518620   6.2212420  35.3275400
  84.0886450   7.2392190  36.2962450  87.5120840   2.8365300  22.1340360
  88.4000460   3.1482530  21.9591700  87.4825930   1.9637550  21.7420940
  78.6211930   7.7422710  27.5401230  79.1390600   6.9390970  27.4858120
  78.1695950   7.6801850  28.3818060  83.5081430   9.0088990  22.8128530
  83.8497130   9.7531220  22.3171850  82.6794140   9.3220110  23.1753360
  76.1056470   4.7084080  34.4526930  75.7471410   5.3737930  35.0400270
  75.8111030   3.8767630  34.8239550  79.3069590   5.1668320  37.3366480
  79.0069730   5.3125500  36.4394300  80.0780830   4.6073610  37.2439870
  84.6498040   9.9637320  35.3321610  84.6642580   9.0318280  35.1140520
  83.9423140  10.0497080  35.9711380  86.3908840   8.3304830  28.1774040
  86.7432660   7.7332960  27.5175410  85.5071170   8.0049060  28.3482290
  82.4772120   9.0902520  25.5844450  83.1643250   9.6371730  25.9652040
  81.6904540   9.6343250  25.6194060  74.6164520   4.7075340  21.0761530
  75.4859370   4.9900140  21.3597450  74.1254840   5.5211210  20.9610340
  81.7799330   6.0948550  25.1969810  82.2362110   6.9053800  25.4230000
  81.4287540   5.7771690  26.0288300  84.0831940  11.6054890  32.4262110
  84.7274160  11.8114270  33.1035530  84.4461380  10.8443290  31.9732960
  85.3564020   9.6087240  31.1439560  85.9986250   8.9080400  31.2571730
  85.8813370  10.3885680  30.9636450  89.2019740   9.8935860  20.8678700
  88.9757320   9.1766300  21.4603340  88.8115940   9.6448300  20.0300450
  87.1301640  10.4082140  34.3475620  87.4657880  10.9948830  35.0253540
  86.2101980  10.2774850  34.5773410  74.9835770  13.9202720  21.6423160
  75.3433410  14.5192060  20.9880430  74.8428110  14.4662610  22.4158190
  88.7835990   7.8107800  22.5292860  88.4957690   8.2720490  23.3170740
  89.5788160   7.3505570  22.7977080  74.9677630  12.1857580  36.1165560
  75.0768750  11.2452320  35.9760950  74.3158190  12.4512330  35.4679290
  82.9590220  10.4573470  37.5163680  82.6387090   9.7382710  38.0609370
  82.2848580  11.1328540  37.5899740  81.0004390  11.3033920  22.4596830
  80.9914490  12.0363610  21.8441340  80.0802750  11.0565500  22.5523790
  76.6011030   6.5248810  23.2043590  75.9938980   7.2647710  23.2138890
  77.0760380   6.6148170  22.3781790  83.9863990  11.3662160  21.1222020
  84.0875970  11.1626150  20.1924000  83.0865730  11.1120440  21.3269800
  83.1345810   3.3439220  33.1038450  83.6331060   3.8185040  33.7690300
  83.2768760   2.4202740  33.3108480  82.6282100  13.8848480  25.8169690
  82.8823600  13.8469870  24.8949060  81.6794580  13.7581810  25.8097940
  88.6334680   4.8040360  27.3928200  87.6924820   4.8190590  27.5675890
  88.9478750   4.0176320  27.8388500  78.6116320   6.4859960  20.9532160
  79.3779590   6.3741320  21.5157590  78.6891010   5.7897930  20.3008930
  77.3063080   3.9185030  21.6365050  77.3866670   2.9712540  21.7482450
  78.1982830   4.2491910  21.7425710  78.1077790  14.0680420  28.7399590
  78.8440270  13.5195880  29.0108160  78.4918710  14.9336430  28.6005580
  74.9923270  10.1353990  24.6141100  74.0663050  10.3775130  24.6046510
  75.4579700  10.9628250  24.4925850  77.1136070  13.2526490  37.9285170
  77.9148800  13.5738540  38.3420570  76.5987890  12.8922070  38.6505080
  81.2180100  13.2410730  20.5625160  82.0108710  13.5299560  20.1106950
  80.6984450  12.8102900  19.8837640  85.9500700   9.3606360  37.8760580
  85.3438860   9.3837960  37.1356330  85.6454810   8.6289400  38.4127830
  87.3801070  13.0886650  36.4869990  88.3322820  13.0044670  36.4370230
  87.2329290  13.7528360  37.1603780  74.8333880   5.7399950  36.8721220
  75.3372900   5.1607230  37.4437450  74.0941300   6.0240180  37.4097590
  81.7357500   8.4614140  20.4267510  81.6308140   7.8466490  21.1528890
  81.5681720   7.9380030  19.6430520  81.8871820   7.1470940  36.4056740
  81.1217490   7.7155940  36.3211410  82.0687780   6.8547150  35.5124970
  84.9760230   7.5234170  21.0309500  84.4270330   7.9703470  21.6752240
  85.5979490   7.0183420  21.5547170  89.0295170   8.8776270  36.9631760
  89.7704640   9.2152030  36.4599220  88.2667850   9.0468330  36.4101530
  76.8656960   3.8829540  37.7671290  76.9062300   3.5843410  38.6756520
  77.7202460   4.2837150  37.6078810  80.6435350   6.4825090  22.9274800
  81.0651770   6.3164960  23.7706190  80.7686190   5.6725320  22.4329940
  78.8062770   2.4621640  35.7345780  78.2759230   1.9712590  35.1069120
  79.4750840   2.8905840  35.2003710  83.1562990   5.5062700  20.1751900
  83.6768650   4.7911720  19.8093050  83.8031390   6.1448570  20.4752410
  87.7040830   6.9291100  35.4986970  88.1181850   7.0836180  36.3477390
  86.7691830   7.0546320  35.6612750  88.1763000   4.2687260  37.5026120
  88.7583770   3.5139580  37.4146600  88.3524770   4.7994700  36.7257600
  82.4656060   6.8811580  33.4682900  82.8844170   7.7244310  33.2959140
  81.5464690   7.0183620  33.2389680  84.8019960   4.6127760  34.8520740
  84.9216170   4.0168900  35.5915580  85.6613960   4.6497450  34.4322040
  87.1407860   5.1664950  33.4283250  86.6143080   5.6907570  32.8248390
  87.4839200   5.7992340  34.0592980  79.5394250   2.5558320  19.8732960
  79.3383310   1.6925680  20.2346300  79.3686300   2.4691680  18.9354560
  80.3163480  13.1864590  34.5840630  79.7784570  13.9110650  34.2649330
  80.5697440  12.7094930  33.7937970  83.1725690  14.4215800  34.8427280
  83.0984390  15.3250940  35.1499650  82.2704530  14.1027700  34.8149350
  83.7211020  13.5874310  22.4653640  84.6161810  13.9259280  22.4872400
  83.7528650  12.8653720  21.8377920  77.3607180   8.9601360  20.6940640
  77.7982050   9.5031030  21.3498220  77.8454910   8.1348310  20.7036980
  74.5752980  11.7490390  28.1460900  74.9055990  10.8811450  27.9139540
  75.0043980  11.9548910  28.9765860  79.1714900  10.0799400  25.8062870
  78.8710440   9.9564370  26.7066780  79.0652390   9.2207990  25.3978600
  75.0643190  12.6160980  30.8842530  74.6274180  12.7961780  31.7166680
  75.6320870  13.3735600  30.7424250  74.8967620   5.1281210  27.2431410
  74.2416460   4.8592850  26.5991110  75.7345570   5.0185690  26.7933390
  89.3857010   8.8429960  33.2696000  88.5716850   9.2727120  33.5321790
  89.7931210   9.4548370  32.6565050  75.9343550   5.5133780  31.7834750
  76.3016590   5.4261180  32.6630770  75.3654370   4.7500330  31.6841610
  75.4859550   2.4242870  35.6893170  74.5915600   2.3909630  36.0286880
  76.0257100   2.6229660  36.4544420  74.1105700   2.3380140  23.1856740
  73.2069780   2.6010340  23.0108400  74.5946320   2.6091310  22.4056700
  77.3495630  10.0266470  36.9454900  77.3065260   9.6559380  37.8269360
  77.4806640  10.9644040  37.0856720  81.0501660  11.5826060  32.5464620
  80.8093020  11.8500620  31.6595140  81.9904300  11.7531790  32.6015480
  77.1883660  12.9728720  34.0652680  76.5943980  12.8413420  34.8042720
  77.1807500  12.1366860  33.5994780  76.8195890  10.3387100  33.0160720
  76.0929950   9.7192390  32.9486670  76.8805040  10.7327710  32.1458800
  80.4240990  12.5532100  29.8010130  80.9406010  11.9419460  29.2758390
  81.0738370  13.0560880  30.2921140  83.1636490  13.4440590  30.6279110
  83.4514300  13.1894890  29.7512120  83.6759710  12.8917950  31.2184680
  75.1025890  13.6561490  26.2257480  74.9347930  13.0232170  26.9239370
  74.2360400  13.8620890  25.8751670  76.7088590  12.3494720  23.6707620
  76.1836210  12.7302750  22.9669580  76.6333170  12.9745490  24.3917330
  83.2308850  14.3656690  37.9947310  84.1576160  14.1300960  38.0383270
  83.2159280  15.1928690  37.5133340  79.3081560  14.2977100  22.5456870
  80.0400380  14.0136380  21.9980760  79.5675230  14.0590380  23.4356250
  78.4696350  10.4141830  22.5503200  77.8405230  10.8826930  23.0989030
  78.5844180   9.5691050  22.9849390  85.9246070   4.4647490   8.7004400
  85.8440120   3.5502100   8.4296110  85.5110490   4.9614560   7.9944110
  84.0564110   6.2426510  10.5813670  83.2806210   5.7626950  10.8712240
  84.7077040   5.5632160  10.4069830  78.0729940   6.5546320  11.4589430
  77.2414820   6.2995030  11.8585940  78.6810920   6.6257090  12.1947350
  88.0771540  10.6486700   9.3612800  87.6153070   9.8773940   9.6899970
  88.8897090  10.6752770   9.8665250  78.0531200  10.5886410  11.6547450
  78.3559240   9.6984150  11.4757670  78.7974790  11.1456630  11.4269700
  74.4454900   4.1153860  11.1271520  75.0171010   3.3476060  11.1275160
  74.4456440   4.4142620  10.2178130  84.3034850  12.9344710   8.9816790
  83.6846290  13.3902210   8.4111230  85.1586630  13.0896170   8.5806490
  83.4973100   8.9183700  10.5883830  83.4281380   7.9773640  10.4272960
  84.2592960   9.0085110  11.1606400  80.4991010   3.0666080  10.6095380
  81.0069230   3.5647050  11.2500400  81.0304250   2.2901280  10.4334740
  85.1698200   7.8183950   6.3748700  84.5515470   8.2833400   5.8111420
  85.6821450   8.5111430   6.7918210  80.0329960   7.3459820  13.0532300
  79.6999340   7.9728740  13.6953370  80.2096640   7.8721700  12.2733970
  79.2449060   9.3140620  14.8681480  79.8623060   9.9891700  14.5865930
  78.3842180   9.7228600  14.7768980  74.5381400   8.5040480   3.7488330
  74.1609380   8.9927580   3.0173230  74.7954470   9.1765760   4.3794860
  87.6985390  12.6224160  11.4981300  87.7112550  12.2186450  10.6303560
  87.1460610  13.3971450  11.3942730  88.9930810   9.3440380   6.5871470
  88.8827140   8.4014710   6.7120890  88.9899060   9.7056020   7.4734230
  87.0970830   7.5254000  12.8263910  87.5139620   7.3114110  11.9917370
  87.8210650   7.7826790  13.3972530  84.5351090   4.9705700   5.9433960
  83.6080370   4.9043080   6.1722430  84.6875910   5.9085830   5.8289200
  88.5648380   6.5326000   6.4469210  87.9460800   6.1945550   5.7995510
  88.5472830   5.8885760   7.1548400  88.0074940   2.7110540  13.8635020
  87.5946120   3.5364250  14.1175010  87.2750890   2.1255580  13.6711380
  80.1407730   5.4970440   8.7253690  79.7364730   4.7847690   8.2299590
  80.2270850   5.1523680   9.6141730  80.6089430   9.1838000  10.8892900
  80.3117720   8.5783470  10.2100680  81.5589250   9.2215310  10.7782260
  78.8536350   2.2713650  12.5052730  79.4050940   2.3808990  11.7305980
  79.3679860   2.6451250  13.2207960  88.6975040  12.7569870  14.5516000
  88.2205600  13.5642060  14.3588610  88.0136830  12.1048200  14.7042210
  79.7007860   8.9219690  17.5400700  78.8036390   9.1459660  17.7874100
  79.7260730   9.0454630  16.5912100  86.7413080   5.7712810   3.4541960
  87.1806360   4.9335240   3.3079780  87.4541500   6.4042210   3.5406100
  78.5279080   5.7933010  16.1158070  78.3886850   6.6655810  16.4845470
  77.6460440   5.4505820  15.9706010  84.8508460  10.7108880   7.4223200
  85.2904370  11.4533210   7.0078590  84.7895350  10.9535450   8.3462160
  80.3259430  11.7354710  18.3243220  80.2974860  12.1397660  17.4571650
  80.1624400  10.8065070  18.1614820  76.8412360   4.3915420   6.2260340
  76.7209960   5.1177510   5.6141610  76.5313250   3.6218330   5.7488250
  74.4797730   7.5630560  12.0328980  74.5578150   7.6979330  11.0884700
  75.0939410   6.8546450  12.2257100  75.7245360   9.2630750   8.4435160
  75.3173440   9.4045340   7.5888760  76.6158370   8.9790910   8.2406370
  85.5424240  13.4122660  15.3502210  86.0568910  13.3230670  16.1524640
  84.6993320  13.7582360  15.6430120  87.5178640  13.6978000   4.7786210
  87.3579780  13.4080940   5.6768040  87.3525350  12.9218130   4.2431440
  79.9967020  13.4776530   6.5557830  79.8209500  12.5612070   6.3425630
  79.1422760  13.8363820   6.7955630  87.2204770  11.2065560   3.3384210
  86.5269930  11.2042850   2.6786490  87.9627630  10.7824880   2.9078380
  86.7854700  12.8328270   7.4132700  87.2411650  12.0517650   7.7271320
  87.1247220  13.5435090   7.9573880  74.5357250   8.6044730  14.5723440
  74.6988290   8.1350090  13.7542810  75.0009700   8.0968290  15.2372280
  88.5950340   1.8227960  16.3415990  87.7443930   1.5233710  16.6625060
  88.4352130   2.0669970  15.4299810  85.6900050   3.3229710  18.4414780
  86.0153460   2.4893460  18.1017010  86.4780380   3.8458230  18.5893110
  79.0990240   2.8584060   7.3365260  78.8731160   2.6421230   8.2411880
  78.3182770   3.2912520   6.9911230  86.3288000   2.8647430   5.9355910
  85.7296890   3.5883230   5.7519530  86.8767610   2.8024210   5.1532360
  81.5389450   3.7569640  18.0025530  81.4433050   2.8164370  17.8525930
  82.3821430   3.9784710  17.6073600  85.5208010   4.0916720  12.0609970
  84.7889130   4.6003530  12.4100070  85.1232350   3.2746700  11.7598750
  82.0205550   1.7683000   3.4569220  82.1418370   1.7269480   4.4055040
  81.6354060   2.6307150   3.3015950  81.0327050   4.0784140   2.8552520
  80.4643950   3.6302390   2.2288430  81.7416050   4.4376920   2.3217670
  76.1096230   7.9796160  16.7319250  75.7251020   7.3389830  17.3302210
  76.4208420   8.6832280  17.3013980  82.2593370   4.8272700  12.2127870
  82.6263500   4.3531270  12.9589210  82.0698430   5.7014270  12.5536210
  80.0492740   3.8681340  14.5312080  79.7449810   4.7473320  14.7562440
  81.0039200   3.9281130  14.5669520  78.5774530   8.0742330   5.1278930
  77.8036790   7.5339950   4.9677650  79.3069160   7.5548940   4.7896690
  84.7181310   7.1416750  16.8074320  84.6518620   6.2212420  16.5531910
  84.0886450   7.2392190  17.5218960  87.5120840   2.8365300   3.3596870
  88.4000460   3.1482530   3.1848210  87.4825930   1.9637550   2.9677450
  78.6211930   7.7422710   8.7657740  79.1390600   6.9390970   8.7114630
  78.1695950   7.6801850   9.6074570  83.5081430   9.0088990   4.0385040
  83.8497130   9.7531220   3.5428360  82.6794140   9.3220110   4.4009870
  76.1056470   4.7084080  15.6783440  75.7471410   5.3737930  16.2656780
  75.8111030   3.8767630  16.0496060  79.3069590   5.1668320  18.5622990
  79.0069730   5.3125500  17.6650810  80.0780830   4.6073610  18.4696380
  84.6498040   9.9637320  16.5578120  84.6642580   9.0318280  16.3397030
  83.9423140  10.0497080  17.1967890  86.3908840   8.3304830   9.4030550
  86.7432660   7.7332960   8.7431920  85.5071170   8.0049060   9.5738800
  82.4772120   9.0902520   6.8100960  83.1643250   9.6371730   7.1908550
  81.6904540   9.6343250   6.8450570  74.6164520   4.7075340   2.3018040
  75.4859370   4.9900140   2.5853960  74.1254840   5.5211210   2.1866850
  81.7799330   6.0948550   6.4226320  82.2362110   6.9053800   6.6486510
  81.4287540   5.7771690   7.2544810  84.0831940  11.6054890  13.6518620
  84.7274160  11.8114270  14.3292040  84.4461380  10.8443290  13.1989470
  85.3564020   9.6087240  12.3696070  85.9986250   8.9080400  12.4828240
  85.8813370  10.3885680  12.1892960  87.1301640  10.4082140  15.5732130
  87.4657880  10.9948830  16.2510050  86.2101980  10.2774850  15.8029920
  74.9835770  13.9202720   2.8679670  75.3433410  14.5192060   2.2136940
  74.8428110  14.4662610   3.6414700  88.7835990   7.8107800   3.7549370
  88.4957690   8.2720490   4.5427250  89.5788160   7.3505570   4.0233590
  74.9677630  12.1857580  17.3422070  75.0768750  11.2452320  17.2017460
  74.3158190  12.4512330  16.6935800  82.9590220  10.4573470  18.7420190
  82.6387090   9.7382710  19.2865880  82.2848580  11.1328540  18.8156250
  81.0004390  11.3033920   3.6853340  80.9914490  12.0363610   3.0697850
  80.0802750  11.0565500   3.7780300  76.6011030   6.5248810   4.4300100
  75.9938980   7.2647710   4.4395400  77.0760380   6.6148170   3.6038300
  83.1345810   3.3439220  14.3294960  83.6331060   3.8185040  14.9946810
  83.2768760   2.4202740  14.5364990  82.6282100  13.8848480   7.0426200
  82.8823600  13.8469870   6.1205570  81.6794580  13.7581810   7.0354450
  88.6334680   4.8040360   8.6184710  87.6924820   4.8190590   8.7932400
  88.9478750   4.0176320   9.0645010  77.3063080   3.9185030   2.8621560
  77.3866670   2.9712540   2.9738960  78.1982830   4.2491910   2.9682220
  78.1077790  14.0680420   9.9656100  78.8440270  13.5195880  10.2364670
  78.4918710  14.9336430   9.8262090  74.9923270  10.1353990   5.8397610
  74.0663050  10.3775130   5.8303020  75.4579700  10.9628250   5.7182360
  77.1136070  13.2526490  19.1541680  77.9148800  13.5738540  19.5677080
  76.5987890  12.8922070  19.8761590  85.9500700   9.3606360  19.1017090
  85.3438860   9.3837960  18.3612840  85.6454810   8.6289400  19.6384340
  87.3801070  13.0886650  17.7126500  88.3322820  13.0044670  17.6626740
  87.2329290  13.7528360  18.3860290  74.8333880   5.7399950  18.0977730
  75.3372900   5.1607230  18.6693960  74.0941300   6.0240180  18.6354100
  81.8871820   7.1470940  17.6313250  81.1217490   7.7155940  17.5467920
  82.0687780   6.8547150  16.7381480  84.9760230   7.5234170   2.2566010
  84.4270330   7.9703470   2.9008750  85.5979490   7.0183420   2.7803680
  89.0295170   8.8776270  18.1888270  89.7704640   9.2152030  17.6855730
  88.2667850   9.0468330  17.6358040  76.8656960   3.8829540  18.9927800
  76.9062300   3.5843410  19.9013030  77.7202460   4.2837150  18.8335320
  80.6435350   6.4825090   4.1531310  81.0651770   6.3164960   4.9962700
  80.7686190   5.6725320   3.6586450  78.8062770   2.4621640  16.9602290
  78.2759230   1.9712590  16.3325630  79.4750840   2.8905840  16.4260220
  87.7040830   6.9291100  16.7243480  88.1181850   7.0836180  17.5733900
  86.7691830   7.0546320  16.8869260  88.1763000   4.2687260  18.7282630
  88.7583770   3.5139580  18.6403110  88.3524770   4.7994700  17.9514110
  82.4656060   6.8811580  14.6939410  82.8844170   7.7244310  14.5215650
  81.5464690   7.0183620  14.4646190  84.8019960   4.6127760  16.0777250
  84.9216170   4.0168900  16.8172090  85.6613960   4.6497450  15.6578550
  87.1407860   5.1664950  14.6539760  86.6143080   5.6907570  14.0504900
  87.4839200   5.7992340  15.2849490  80.3163480  13.1864590  15.8097140
  79.7784570  13.9110650  15.4905840  80.5697440  12.7094930  15.0194480
  83.1725690  14.4215800  16.0683790  83.0984390  15.3250940  16.3756160
  82.2704530  14.1027700  16.0405860  83.7211020  13.5874310   3.6910150
  84.6161810  13.9259280   3.7128910  83.7528650  12.8653720   3.0634430
  77.3607180   8.9601360   1.9197150  77.7982050   9.5031030   2.5754730
  77.8454910   8.1348310   1.9293490  74.5752980  11.7490390   9.3717410
  74.9055990  10.8811450   9.1396050  75.0043980  11.9548910  10.2022370
  79.1714900  10.0799400   7.0319380  78.8710440   9.9564370   7.9323290
  79.0652390   9.2207990   6.6235110  75.0643190  12.6160980  12.1099040
  74.6274180  12.7961780  12.9423190  75.6320870  13.3735600  11.9680760
  74.8967620   5.1281210   8.4687920  74.2416460   4.8592850   7.8247620
  75.7345570   5.0185690   8.0189900  89.3857010   8.8429960  14.4952510
  88.5716850   9.2727120  14.7578300  89.7931210   9.4548370  13.8821560
  75.9343550   5.5133780  13.0091260  76.3016590   5.4261180  13.8887280
  75.3654370   4.7500330  12.9098120  75.4859550   2.4242870  16.9149680
  74.5915600   2.3909630  17.2543390  76.0257100   2.6229660  17.6800930
  74.1105700   2.3380140   4.4113250  73.2069780   2.6010340   4.2364910
  74.5946320   2.6091310   3.6313210  77.3495630  10.0266470  18.1711410
  77.3065260   9.6559380  19.0525870  77.4806640  10.9644040  18.3113230
  81.0501660  11.5826060  13.7721130  80.8093020  11.8500620  12.8851650
  81.9904300  11.7531790  13.8271990  77.1883660  12.9728720  15.2909190
  76.5943980  12.8413420  16.0299230  77.1807500  12.1366860  14.8251290
  76.8195890  10.3387100  14.2417230  76.0929950   9.7192390  14.1743180
  76.8805040  10.7327710  13.3715310  80.4240990  12.5532100  11.0266640
  80.9406010  11.9419460  10.5014900  81.0738370  13.0560880  11.5177650
  83.1636490  13.4440590  11.8535620  83.4514300  13.1894890  10.9768630
  83.6759710  12.8917950  12.4441190  75.1025890  13.6561490   7.4513990
  74.9347930  13.0232170   8.1495880  74.2360400  13.8620890   7.1008180
  76.7088590  12.3494720   4.8964130  76.1836210  12.7302750   4.1926090
  76.6333170  12.9745490   5.6173840  83.2308850  14.3656690  19.2203820
  84.1576160  14.1300960  19.2639780  83.2159280  15.1928690  18.7389850
  79.3081560  14.2977100   3.7713380  80.0400380  14.0136380   3.2237270
  79.5675230  14.0590380   4.6612760  78.4696350  10.4141830   3.7759710
  77.8405230  10.8826930   4.3245540  78.5844180   9.5691050   4.2105900
  67.1502580  79.5621450  83.7978360  67.0696630  78.6476060  83.5270070
  66.7367000  80.0588520  83.0918070  65.2820620  81.3400470  85.6787630
  64.5062720  80.8600910  85.9686200  65.9333550  80.6606120  85.5043790
  59.2986450  81.6520280  86.5563390  58.4671330  81.3968990  86.9559900
  59.9067430  81.7231050  87.2921310  57.7078400  76.6122170  80.3405780
  56.8195100  76.9538140  80.2385660  57.9919590  76.4122490  79.4486610
  55.6711410  79.2127820  86.2245480  56.2427520  78.4450020  86.2249120
  55.6712950  79.5116580  85.3152090  64.7229610  84.0157660  85.6857790
  64.6537890  83.0747600  85.5246920  65.4849470  84.1059070  86.2580360
  56.9136280  74.6212180  88.0114410  56.7339120  73.7237930  88.2917170
  56.5116360  75.1684050  88.6861360  65.7534780  76.8228040  85.9126720
  66.1299600  75.9499920  85.8000390  65.6554290  77.1586740  85.0217160
  59.8839790  75.1953670  81.3744160  59.9906540  76.0957400  81.6812920
  58.9732150  75.1471640  81.0838810  69.5358900  74.3178480  82.8455060
  70.3568520  73.8275050  82.8880540  69.5692980  74.9076140  83.5986900
  57.5322950  77.1172680  86.6196750  58.2133060  77.3811050  87.2384150
  57.2171000  76.2773550  86.9534760  61.7247520  78.1640040  85.7069340
  62.2325740  78.6621010  86.3474360  62.2560760  77.3875240  85.5308700
  73.8258450  76.3345230  89.4098690  73.1210620  76.7226940  88.8913800
  74.0916370  77.0295520  90.0119620  60.0083620  72.8038600  89.9732760
  60.0102060  73.3210990  89.1678660  59.1787930  72.3268780  89.9502690
  66.3954710  82.9157910  81.4722660  65.7771980  83.3807360  80.9085380
  66.9077960  83.6085390  81.8892170  61.2586470  82.4433780  88.1506260
  60.9255850  83.0702700  88.7927330  61.4353150  82.9695660  87.3707930
  69.7720380  76.2578860  85.6182600  69.0675950  76.5463750  86.1985710
  70.1332540  77.0678970  85.2582160  59.6898950  74.5148560  87.9803210
  60.0315760  75.3590610  87.6857080  58.7514760  74.6632300  88.0968550
  72.8407300  75.7033650  86.0091810  71.8932210  75.7372630  86.1407240
  73.1657290  76.5172600  86.3941170  63.3726840  72.0030830  84.3047800
  63.6801820  71.4477720  83.5883300  62.4427540  72.1375290  84.1220790
  68.3227340  82.6227960  87.9237870  68.7396130  82.4088070  87.0891330
  69.0467160  82.8800750  88.4946490  65.7607600  80.0679660  81.0407920
  64.8336880  80.0017040  81.2696390  65.9132420  81.0059790  80.9263160
  65.7476680  76.3396660  78.0375080  64.8080350  76.5010620  78.1227540
  66.0659940  77.0582340  77.4911070  72.2689440  81.0215180  88.0154110
  71.4408070  81.0908270  87.5404240  72.8639920  81.6069490  87.5469940
  69.7904890  81.6299960  81.5443170  69.1717310  81.2919510  80.8969470
  69.7729340  80.9859720  82.2522360  69.2331450  77.8084500  88.9608980
  68.8202630  78.6338210  89.2148970  68.5007400  77.2229540  88.7685340
  61.3664240  80.5944400  83.8227650  60.9621240  79.8821650  83.3273550
  61.4527360  80.2497640  84.7115690  60.0792860  77.3687610  87.6026690
  60.6307450  77.4782950  86.8279940  60.5936370  77.7425210  88.3181920
  67.9669590  80.8686770  78.5515920  68.4062870  80.0309200  78.4053740
  68.6798010  81.5016170  78.6380060  59.7535590  80.8906970  91.2132030
  59.6143360  81.7629770  91.5819430  58.8716950  80.5479780  91.0679970
  71.5486730  72.1229580  76.8656960  71.2359390  72.2156410  77.7656030
  72.3099200  72.7010610  76.8154390  58.0668870  79.4889380  81.3234300
  57.9466470  80.2151470  80.7115570  57.7569760  78.7192290  80.8462210
  55.7054240  82.6604520  87.1302940  55.7834660  82.7953290  86.1858660
  56.3195920  81.9520410  87.3231060  72.7588020  76.8601080  92.8431100
  72.1432290  77.3680750  92.3146560  72.4384440  75.9599410  92.7857040
  55.7613760  83.7018690  89.6697400  55.9244800  83.2324050  88.8516770
  56.2266210  83.1942250  90.3346240  60.5332530  72.8324450  84.7057970
  60.0900680  73.6133990  84.3742490  61.0917520  73.1554340  85.4128910
  64.8202340  75.6992970  90.3093290  64.3581710  75.9075990  91.1213230
  64.4180450  74.8852320  90.0063960  69.8206850  76.9201920  91.4389950
  68.9700440  76.6207670  91.7599020  69.6608640  77.1643930  90.5273770
  66.9156560  78.4203670  93.5388740  67.2409970  77.5867420  93.1990970
  67.7036890  78.9432190  93.6867070  63.6491350  72.4535150  79.5863800
  63.0245530  72.4495020  80.3117110  63.5621470  71.5866110  79.1899770
  62.5708430  73.3771780  86.5647570  62.8680760  74.2834610  86.4839590
  63.1193990  72.8890560  85.9507140  60.3246750  77.9558020  82.4339220
  60.0987670  77.7395190  83.3385840  59.5439280  78.3886480  82.0885190
  67.5544510  77.9621390  81.0329870  66.9553400  78.6857190  80.8493490
  68.1024120  77.8998170  80.2506320  62.7645960  78.8543600  93.0999490
  62.6689560  77.9138330  92.9499890  63.6077940  79.0758670  92.7047560
  66.1609380  76.5984930  83.0633150  66.5538950  76.9157130  82.2501840
  66.5226230  75.7196810  83.1777670  57.8956500  75.2657270  91.2533270
  57.5019890  76.1132480  91.4606050  57.2074900  74.6283640  91.4441910
  55.1973550  73.1885730  85.2863350  54.9086600  73.7588590  85.9988330
  55.9419310  72.7090180  85.6494580  55.3843780  77.1305850  76.4966070
  55.3018450  78.0736610  76.6381060  55.0326840  76.9880760  75.6178420
  66.7464520  79.1890680  87.1583930  66.0145640  79.6977490  87.5074030
  66.3488860  78.3720660  86.8572710  63.1841910  75.8644880  85.5636420
  63.1877970  75.4234830  84.7140960  64.0793030  76.1862210  85.6708240
  59.0344290  75.7471370  84.5230630  58.6944340  76.2246600  85.2797680
  58.2721610  75.2936490  84.1631730  63.2462060  76.8656960  78.5543180
  63.3674880  76.8243440  79.5029000  62.8610570  77.7281110  78.3989910
  67.2090430  74.6424360  86.5706870  67.2263170  75.0933010  87.4148720
  66.9606010  73.7430000  86.7840310  62.2583560  79.1758100  77.9526480
  61.6900460  78.7276350  77.3262390  62.9672560  79.5350880  77.4191630
  70.6361180  72.0556540  92.4093250  70.9606950  71.3246200  92.9351230
  70.6717690  71.7370180  91.5074240  57.3352740  83.0770120  91.8293210
  56.9507530  82.4363790  92.4276170  57.6464930  83.7806240  92.3987940
  63.4849880  79.9246660  87.3101830  63.8520010  79.4505230  88.0563170
  63.2954940  80.7988230  87.6510170  56.3490370  74.6690350  83.4395300
  56.0637290  74.3046020  84.2773920  56.2869230  73.9370810  82.8258440
  61.2749250  78.9655300  89.6286040  60.9706320  79.8447280  89.8536400
  62.2295710  79.0255090  89.6643480  59.8031040  83.1716290  80.2252890
  59.0293300  82.6313910  80.0651610  60.5325670  82.6522900  79.8870650
  70.5619020  82.1681650  86.0179280  71.2818140  82.6636940  85.6275390
  70.3600840  81.4899540  85.3733150  66.0228960  73.5619610  80.1608670
  65.2093570  73.0632780  80.0853980  65.8290910  74.4017860  79.7445020
  65.9437820  82.2390710  91.9048280  65.8775130  81.3186380  91.6505870
  65.3142960  82.3366150  92.6192920  68.7377350  77.9339260  78.4570830
  69.6256970  78.2456490  78.2822170  68.7082440  77.0611510  78.0651410
  59.8468440  82.8396670  83.8631700  60.3647110  82.0364930  83.8088590
  59.3952460  82.7775810  84.7048530  57.3312980  79.8058040  90.7757400
  56.9727920  80.4711890  91.3630740  57.0367540  78.9741590  91.1470020
  60.5326100  80.2642280  93.6596950  60.2326240  80.4099460  92.7624770
  61.3037340  79.7047570  93.5670340  71.0091620  79.2451100  77.9250690
  70.9255340  79.6765320  77.0747130  71.7285810  79.7049450  78.3577510
  72.0865760  81.7018620  91.0020660  71.3613950  82.2947400  90.8050050
  72.6141220  81.6942160  90.2034030  67.6165350  83.4278790  84.5004510
  67.9689170  82.8306920  83.8405880  66.7327680  83.1023020  84.6712760
  55.8421030  79.8049300  77.3992000  56.7115880  80.0874100  77.6827920
  55.3511350  80.6185170  77.2840810  63.0055840  81.1922510  81.5200280
  63.4618620  82.0027760  81.7460470  62.6544050  80.8745650  82.3518770
  58.9067620  71.5360160  81.9922800  58.7782250  71.5278060  82.9407720
  58.0829640  71.8743250  81.6413810  55.9061550  73.2951280  91.4529500
  55.1920070  73.4948200  92.0582110  56.3256590  72.5190850  91.8244300
  70.0092500  82.9081760  78.8523330  69.7214200  83.3694450  79.6401210
  70.8044670  82.4479530  79.1207550  57.8267540  81.6222770  79.5274060
  57.2195490  82.3621670  79.5369360  58.3016890  81.7122130  78.7012260
  67.4000330  75.7873590  89.2030950  67.7681150  74.9668800  89.5310520
  66.5398530  75.8475480  89.6186600  70.7662360  74.7430530  80.0118510
  70.1375520  74.8476200  79.2976740  70.2714280  74.9627310  80.8012390
  62.7346390  77.0216480  81.4276390  62.0262540  77.4902820  81.8690000
  63.0190870  76.3638490  82.0621580  64.3602320  78.4413180  89.4268920
  64.8587570  78.9159000  90.0920770  64.5025270  77.5176700  89.6338950
  66.7661820  73.7467140  82.8672180  66.6429600  73.7653270  81.9181690
  67.7146380  73.7946080  82.9870580  60.9381410  75.3301560  78.8027100
  61.7871940  75.7671710  78.7367290  60.5712680  75.6421820  79.6299160
  71.5669180  74.6581140  90.2697310  71.0642780  75.3986540  90.6091120
  72.3825840  75.0465140  89.9534100  69.8591190  79.9014320  83.7158670
  68.9181330  79.9164550  83.8906360  70.1735260  79.1150280  84.1618970
  59.8372830  81.5833920  77.2762630  60.6036100  81.4715280  77.8388060
  59.9147520  80.8871890  76.6239400  58.5319590  79.0158990  77.9595520
  58.6123180  78.0686500  78.0712920  59.4239340  79.3465870  78.0656180
  56.0590390  80.8373910  93.1951690  56.5629410  80.2581190  93.7667920
  55.3197810  81.1214140  93.7328060  62.9614010  83.5588100  76.7497980
  62.8564650  82.9440450  77.4759360  62.7938230  83.0353990  75.9660990
  63.1128330  82.2444900  92.7287210  62.3474000  82.8129900  92.6441880
  63.2944290  81.9521110  91.8355440  66.2016740  82.6208130  77.3539970
  65.6526840  83.0677430  77.9982710  66.8236000  82.1157380  77.8777640
  61.8691860  81.5799050  79.2505270  62.2908280  81.4138920  80.0936660
  61.9942700  80.7699280  78.7560410  60.0319280  77.5595600  92.0576250
  59.5015740  77.0686550  91.4299590  60.7007350  77.9879800  91.5234180
  64.3819500  80.6036660  76.4982370  64.9025160  79.8885680  76.1323520
  65.0287900  81.2422530  76.7982880  68.9297340  82.0265060  91.8217440
  69.3438360  82.1810140  92.6707860  67.9948340  82.1520280  91.9843220
  69.4019510  79.3661220  93.8256590  69.9840280  78.6113540  93.7377070
  69.5781280  79.8968660  93.0488070  60.5191580  74.5257970  92.1373540
  60.4248450  73.9078720  91.4124410  59.9388970  75.2524260  91.9103450
  63.2853020  73.0831210  89.1700930  62.8370320  73.1055470  88.3246480
  62.6518220  72.6850230  89.7671230  63.6912570  81.9785540  89.7913370
  64.1100680  82.8218270  89.6189610  62.7721200  82.1157580  89.5620150
  66.0276470  79.7101720  91.1751210  66.1472680  79.1142860  91.9146050
  66.8870470  79.7471410  90.7552510  68.3664370  80.2638910  89.7513720
  67.8399590  80.7881530  89.1478860  68.7095710  80.8966300  90.3823450
  60.7650760  77.6532280  76.1963430  60.5639820  76.7899640  76.5576770
  60.5942810  77.5665640  75.2585030  62.7945240  76.2523070  92.4327030
  63.3844930  75.9438920  93.1204850  61.9765480  75.7802820  92.5886930
  67.6138670  75.8688880  92.6660050  66.9254190  75.2070420  92.6010040
  68.3344690  75.4227150  93.1108510  68.2439070  72.4640510  78.7250310
  68.5241360  71.6208410  79.0809730  67.4704800  72.6963620  79.2389060
  59.5633560  74.7532900  76.1841310  59.8659460  74.7600330  75.2760460
  60.3028150  74.4030760  76.6808970  62.7818490  73.6967520  77.1697510
  62.4340490  73.0191510  76.5899960  62.9831260  73.2357030  77.9840900
  72.6219790  81.7017240  79.3354220  73.3838700  82.2713890  79.4413910
  72.6374160  81.1344440  80.1062530  56.1224130  80.2255170  83.5661880
  55.4672970  79.9566810  82.9221580  56.9602080  80.1159650  83.1163860
  73.6279760  82.5567340  84.1796150  73.9988590  81.7734660  83.7732120
  74.2681690  83.2456440  84.0013450  72.6738960  81.9951610  76.4926740
  72.9487800  82.9030490  76.3645960  72.4849700  81.9314140  77.4288730
  69.0714570  75.0196460  77.7880370  69.4899450  74.8327440  76.9477030
  68.7650630  74.1675510  78.0983300  72.5704300  79.9320600  81.4856170
  72.1947900  79.1648530  81.0537460  71.8407420  80.3143300  81.9731100
  57.1600060  80.6107740  88.1065220  57.5273100  80.5235140  88.9861240
  56.5910880  79.8474290  88.0072080  71.9603920  79.0792120  91.1195690
  71.7290010  78.8504870  90.2193640  72.2208470  79.9991670  91.0740580
  56.7116060  77.5216830  92.0123640  55.8172110  77.4883590  92.3517350
  57.2513610  77.7203620  92.7774890  55.3362210  77.4354100  79.5087210
  54.4326290  77.6984300  79.3338870  55.8202830  77.7065270  78.7287170
  71.8455260  78.1578090  84.7863410  72.3692740  77.6640740  84.1553580
  72.4314680  78.2928450  85.5310980  72.0244980  78.2417960  88.3082960
  71.0747690  78.2081500  88.4227950  72.2057990  79.1518070  88.0732730
  57.8789420  76.4919640  77.4181590  58.5881120  76.0702860  76.9328870
  57.1629360  76.5594870  76.7864940  57.5263580  72.5458970  76.4584240
  58.2491710  73.0867910  76.7765460  57.7988100  72.2722390  75.5825780
  71.3355230  77.4151440  80.7255820  71.8314350  77.1822310  81.5104700
  71.1371300  76.5763280  80.3093460  57.2155770  71.7965160  86.3606860
  57.8631960  71.2462540  85.9202020  57.6357610  72.0508310  87.1822670
  72.7642390  76.0512390  83.2593500  72.6541670  75.8968430  84.1975770
  73.5249980  75.5233330  83.0168910  71.1108110  71.9906520  89.7176500
  71.7480330  72.6040660  90.0835690  71.2583000  72.0267180  88.7725730
  73.6532660  73.8820310  76.4999640  74.5781970  73.7501490  76.2917930
  73.6308450  73.9613130  77.4536090  73.7271150  74.6530970  79.1256350
  72.9322650  74.5876090  79.6549260  73.9314430  75.5881610  79.1141700
  56.9687770  71.9520830  89.1032180  56.6202590  72.4084650  89.8690360
  56.6375470  71.0577960  89.1854610  64.4812590  73.1432710  92.6251600
  64.4201480  73.7354540  93.3747010  65.4212970  73.0358670  92.4801860
  67.1187150  72.8002770  92.2643890  67.7327560  73.1182060  91.6024970
  67.6636710  72.3151360  92.8839750  57.6408410  71.4797030  92.3782950
  58.1891400  71.2985080  91.6149060  57.7063720  70.6891140  92.9139260
  67.8595190  71.3634910  88.5913180  66.9855030  71.6970020  88.3886110
  67.7505940  70.8908090  89.4165050  68.7667170  73.5705780  89.9754900
  68.4380530  72.7557540  89.5956630  69.7149470  73.5275590  89.8520590
  65.6070010  72.2804750  87.5306090  64.8241800  72.7550250  87.8102850
  65.3132940  71.3759580  87.4219270  70.1591080  72.9827850  85.5755180
  70.5999170  72.9272950  84.7276780  69.8898670  73.8985860  85.6465360
  72.0229650  72.6143090  83.5864000  71.9618050  71.6704310  83.4395020
  72.8021680  72.7223180  84.1317460  56.9510420  72.5852230  80.0519810
  57.7089780  72.6981110  79.4783840  56.4887590  73.4221430  80.0063240
  63.4924230  74.6991500  83.0422120  62.6798740  74.3248390  82.7018000
  63.9965870  73.9436580  83.3443310  67.9949210  71.3633950  84.2805190
  68.5978580  71.9354160  84.7553710  67.2542200  71.9273390  84.0579090
  71.1383810  71.7655510  79.5545470  71.3334440  72.6638960  79.8212900
  70.3513680  71.5342590  80.0478420  59.3235570  73.1116280  78.5921780
  59.8528330  72.3246080  78.4629730  59.9563890  73.7907470  78.8257310
  61.5173410  72.8491420  81.6467170  60.8876150  72.1478730  81.8137300
  60.9778550  73.6095550  81.4300330  67.1502580  79.5621450  65.0234870
  67.0696630  78.6476060  64.7526580  66.7367000  80.0588520  64.3174580
  65.2820620  81.3400470  66.9044140  64.5062720  80.8600910  67.1942710
  65.9333550  80.6606120  66.7300300  59.2986450  81.6520280  67.7819900
  58.4671330  81.3968990  68.1816410  59.9067430  81.7231050  68.5177820
  57.7078400  76.6122170  61.5662290  56.8195100  76.9538140  61.4642170
  57.9919590  76.4122490  60.6743120  55.6711410  79.2127820  67.4501990
  56.2427520  78.4450020  67.4505630  55.6712950  79.5116580  66.5408600
  64.7229610  84.0157660  66.9114300  64.6537890  83.0747600  66.7503430
  65.4849470  84.1059070  67.4836870  56.9136280  74.6212180  69.2370920
  56.7339120  73.7237930  69.5173680  56.5116360  75.1684050  69.9117870
  65.7534780  76.8228040  67.1383230  66.1299600  75.9499920  67.0256900
  65.6554290  77.1586740  66.2473670  59.8839790  75.1953670  62.6000670
  59.9906540  76.0957400  62.9069430  58.9732150  75.1471640  62.3095320
  69.5358900  74.3178480  64.0711570  70.3568520  73.8275050  64.1137050
  69.5692980  74.9076140  64.8243410  57.5322950  77.1172680  67.8453260
  58.2133060  77.3811050  68.4640660  57.2171000  76.2773550  68.1791270
  61.7247520  78.1640040  66.9325850  62.2325740  78.6621010  67.5730870
  62.2560760  77.3875240  66.7565210  73.8258450  76.3345230  70.6355200
  73.1210620  76.7226940  70.1170310  74.0916370  77.0295520  71.2376130
  60.0083620  72.8038600  71.1989270  60.0102060  73.3210990  70.3935170
  59.1787930  72.3268780  71.1759200  66.3954710  82.9157910  62.6979170
  65.7771980  83.3807360  62.1341890  66.9077960  83.6085390  63.1148680
  61.2586470  82.4433780  69.3762770  60.9255850  83.0702700  70.0183840
  61.4353150  82.9695660  68.5964440  69.7720380  76.2578860  66.8439110
  69.0675950  76.5463750  67.4242220  70.1332540  77.0678970  66.4838670
  59.6898950  74.5148560  69.2059720  60.0315760  75.3590610  68.9113590
  58.7514760  74.6632300  69.3225060  72.8407300  75.7033650  67.2348320
  71.8932210  75.7372630  67.3663750  73.1657290  76.5172600  67.6197680
  63.3726840  72.0030830  65.5304310  63.6801820  71.4477720  64.8139810
  62.4427540  72.1375290  65.3477300  68.3227340  82.6227960  69.1494380
  68.7396130  82.4088070  68.3147840  69.0467160  82.8800750  69.7203000
  65.7607600  80.0679660  62.2664430  64.8336880  80.0017040  62.4952900
  65.9132420  81.0059790  62.1519670  65.7476680  76.3396660  59.2631590
  64.8080350  76.5010620  59.3484050  66.0659940  77.0582340  58.7167580
  72.2689440  81.0215180  69.2410620  71.4408070  81.0908270  68.7660750
  72.8639920  81.6069490  68.7726450  69.7904890  81.6299960  62.7699680
  69.1717310  81.2919510  62.1225980  69.7729340  80.9859720  63.4778870
  69.2331450  77.8084500  70.1865490  68.8202630  78.6338210  70.4405480
  68.5007400  77.2229540  69.9941850  61.3664240  80.5944400  65.0484160
  60.9621240  79.8821650  64.5530060  61.4527360  80.2497640  65.9372200
  60.0792860  77.3687610  68.8283200  60.6307450  77.4782950  68.0536450
  60.5936370  77.7425210  69.5438430  67.9669590  80.8686770  59.7772430
  68.4062870  80.0309200  59.6310250  68.6798010  81.5016170  59.8636570
  59.7535590  80.8906970  72.4388540  59.6143360  81.7629770  72.8075940
  58.8716950  80.5479780  72.2936480  71.5486730  72.1229580  58.0913470
  71.2359390  72.2156410  58.9912540  72.3099200  72.7010610  58.0410900
  58.0668870  79.4889380  62.5490810  57.9466470  80.2151470  61.9372080
  57.7569760  78.7192290  62.0718720  55.7054240  82.6604520  68.3559450
  55.7834660  82.7953290  67.4115170  56.3195920  81.9520410  68.5487570
  72.7588020  76.8601080  74.0687610  72.1432290  77.3680750  73.5403070
  72.4384440  75.9599410  74.0113550  55.7613760  83.7018690  70.8953910
  55.9244800  83.2324050  70.0773280  56.2266210  83.1942250  71.5602750
  60.5332530  72.8324450  65.9314480  60.0900680  73.6133990  65.5999000
  61.0917520  73.1554340  66.6385420  64.8202340  75.6992970  71.5349800
  64.3581710  75.9075990  72.3469740  64.4180450  74.8852320  71.2320470
  69.8206850  76.9201920  72.6646460  68.9700440  76.6207670  72.9855530
  69.6608640  77.1643930  71.7530280  66.9156560  78.4203670  74.7645250
  67.2409970  77.5867420  74.4247480  67.7036890  78.9432190  74.9123580
  63.6491350  72.4535150  60.8120310  63.0245530  72.4495020  61.5373620
  63.5621470  71.5866110  60.4156280  62.5708430  73.3771780  67.7904080
  62.8680760  74.2834610  67.7096100  63.1193990  72.8890560  67.1763650
  60.3246750  77.9558020  63.6595730  60.0987670  77.7395190  64.5642350
  59.5439280  78.3886480  63.3141700  67.5544510  77.9621390  62.2586380
  66.9553400  78.6857190  62.0750000  68.1024120  77.8998170  61.4762830
  62.7645960  78.8543600  74.3256000  62.6689560  77.9138330  74.1756400
  63.6077940  79.0758670  73.9304070  66.1609380  76.5984930  64.2889660
  66.5538950  76.9157130  63.4758350  66.5226230  75.7196810  64.4034180
  57.8956500  75.2657270  72.4789780  57.5019890  76.1132480  72.6862560
  57.2074900  74.6283640  72.6698420  64.4701550  75.3492240  75.5486520
  63.7799870  75.1564440  76.1832610  65.2133850  75.6326880  76.0810820
  55.1973550  73.1885730  66.5119860  54.9086600  73.7588590  67.2244840
  55.9419310  72.7090180  66.8751090  55.3843780  77.1305850  57.7222580
  55.3018450  78.0736610  57.8637570  55.0326840  76.9880760  56.8434930
  66.7464520  79.1890680  68.3840440  66.0145640  79.6977490  68.7330540
  66.3488860  78.3720660  68.0829220  63.1841910  75.8644880  66.7892930
  63.1877970  75.4234830  65.9397470  64.0793030  76.1862210  66.8964750
  59.0344290  75.7471370  65.7487140  58.6944340  76.2246600  66.5054190
  58.2721610  75.2936490  65.3888240  63.2462060  76.8656960  59.7799690
  63.3674880  76.8243440  60.7285510  62.8610570  77.7281110  59.6246420
  67.2090430  74.6424360  67.7963380  67.2263170  75.0933010  68.6405230
  66.9606010  73.7430000  68.0096820  62.2583560  79.1758100  59.1782990
  61.6900460  78.7276350  58.5518900  62.9672560  79.5350880  58.6448140
  70.6361180  72.0556540  73.6349760  70.9606950  71.3246200  74.1607740
  70.6717690  71.7370180  72.7330750  57.3352740  83.0770120  73.0549720
  56.9507530  82.4363790  73.6532680  57.6464930  83.7806240  73.6244450
  63.4849880  79.9246660  68.5358340  63.8520010  79.4505230  69.2819680
  63.2954940  80.7988230  68.8766680  56.3490370  74.6690350  64.6651810
  56.0637290  74.3046020  65.5030430  56.2869230  73.9370810  64.0514950
  61.2749250  78.9655300  70.8542550  60.9706320  79.8447280  71.0792910
  62.2295710  79.0255090  70.8899990  59.8031040  83.1716290  61.4509400
  59.0293300  82.6313910  61.2908120  60.5325670  82.6522900  61.1127160
  70.5619020  82.1681650  67.2435790  71.2818140  82.6636940  66.8531900
  70.3600840  81.4899540  66.5989660  66.0228960  73.5619610  61.3865180
  65.2093570  73.0632780  61.3110490  65.8290910  74.4017860  60.9701530
  65.9437820  82.2390710  73.1304790  65.8775130  81.3186380  72.8762380
  65.3142960  82.3366150  73.8449430  68.7377350  77.9339260  59.6827340
  69.6256970  78.2456490  59.5078680  68.7082440  77.0611510  59.2907920
  59.8468440  82.8396670  65.0888210  60.3647110  82.0364930  65.0345100
  59.3952460  82.7775810  65.9305040  57.3312980  79.8058040  72.0013910
  56.9727920  80.4711890  72.5887250  57.0367540  78.9741590  72.3726530
  60.5326100  80.2642280  74.8853460  60.2326240  80.4099460  73.9881280
  61.3037340  79.7047570  74.7926850  71.0091620  79.2451100  59.1507200
  70.9255340  79.6765320  58.3003640  71.7285810  79.7049450  59.5834020
  72.0865760  81.7018620  72.2277170  71.3613950  82.2947400  72.0306560
  72.6141220  81.6942160  71.4290540  67.6165350  83.4278790  65.7261020
  67.9689170  82.8306920  65.0662390  66.7327680  83.1023020  65.8969270
  55.8421030  79.8049300  58.6248510  56.7115880  80.0874100  58.9084430
  55.3511350  80.6185170  58.5097320  63.0055840  81.1922510  62.7456790
  63.4618620  82.0027760  62.9716980  62.6544050  80.8745650  63.5775280
  58.9067620  71.5360160  63.2179310  58.7782250  71.5278060  64.1664230
  58.0829640  71.8743250  62.8670320  55.9061550  73.2951280  72.6786010
  55.1920070  73.4948200  73.2838620  56.3256590  72.5190850  73.0500810
  70.0092500  82.9081760  60.0779840  69.7214200  83.3694450  60.8657720
  70.8044670  82.4479530  60.3464060  57.8267540  81.6222770  60.7530570
  57.2195490  82.3621670  60.7625870  58.3016890  81.7122130  59.9268770
  67.4000330  75.7873590  70.4287460  67.7681150  74.9668800  70.7567030
  66.5398530  75.8475480  70.8443110  70.7662360  74.7430530  61.2375020
  70.1375520  74.8476200  60.5233250  70.2714280  74.9627310  62.0268900
  62.7346390  77.0216480  62.6532900  62.0262540  77.4902820  63.0946510
  63.0190870  76.3638490  63.2878090  64.3602320  78.4413180  70.6525430
  64.8587570  78.9159000  71.3177280  64.5025270  77.5176700  70.8595460
  66.7661820  73.7467140  64.0928690  66.6429600  73.7653270  63.1438200
  67.7146380  73.7946080  64.2127090  60.9381410  75.3301560  60.0283610
  61.7871940  75.7671710  59.9623800  60.5712680  75.6421820  60.8555670
  71.5669180  74.6581140  71.4953820  71.0642780  75.3986540  71.8347630
  72.3825840  75.0465140  71.1790610  69.8591190  79.9014320  64.9415180
  68.9181330  79.9164550  65.1162870  70.1735260  79.1150280  65.3875480
  59.8372830  81.5833920  58.5019140  60.6036100  81.4715280  59.0644570
  59.9147520  80.8871890  57.8495910  58.5319590  79.0158990  59.1852030
  58.6123180  78.0686500  59.2969430  59.4239340  79.3465870  59.2912690
  56.0590390  80.8373910  74.4208200  56.5629410  80.2581190  74.9924430
  55.3197810  81.1214140  74.9584570  62.9614010  83.5588100  57.9754490
  62.8564650  82.9440450  58.7015870  62.7938230  83.0353990  57.1917500
  63.1128330  82.2444900  73.9543720  62.3474000  82.8129900  73.8698390
  63.2944290  81.9521110  73.0611950  66.2016740  82.6208130  58.5796480
  65.6526840  83.0677430  59.2239220  66.8236000  82.1157380  59.1034150
  58.0913470  78.9803500  75.3158270  58.1318810  78.6817370  76.2243500
  58.9458970  79.3811110  75.1565790  61.8691860  81.5799050  60.4761780
  62.2908280  81.4138920  61.3193170  61.9942700  80.7699280  59.9816920
  60.0319280  77.5595600  73.2832760  59.5015740  77.0686550  72.6556100
  60.7007350  77.9879800  72.7490690  64.3819500  80.6036660  57.7238880
  64.9025160  79.8885680  57.3580030  65.0287900  81.2422530  58.0239390
  68.9297340  82.0265060  73.0473950  69.3438360  82.1810140  73.8964370
  67.9948340  82.1520280  73.2099730  69.4019510  79.3661220  75.0513100
  69.9840280  78.6113540  74.9633580  69.5781280  79.8968660  74.2744580
  60.5191580  74.5257970  73.3630050  60.4248450  73.9078720  72.6380920
  59.9388970  75.2524260  73.1359960  63.2853020  73.0831210  70.3957440
  62.8370320  73.1055470  69.5502990  62.6518220  72.6850230  70.9927740
  63.6912570  81.9785540  71.0169880  64.1100680  82.8218270  70.8446120
  62.7721200  82.1157580  70.7876660  66.0276470  79.7101720  72.4007720
  66.1472680  79.1142860  73.1402560  66.8870470  79.7471410  71.9809020
  68.3664370  80.2638910  70.9770230  67.8399590  80.7881530  70.3735370
  68.7095710  80.8966300  71.6079960  60.7650760  77.6532280  57.4219940
  60.5639820  76.7899640  57.7833280  60.5942810  77.5665640  56.4841540
  62.7945240  76.2523070  73.6583540  63.3844930  75.9438920  74.3461360
  61.9765480  75.7802820  73.8143440  67.6138670  75.8688880  73.8916560
  66.9254190  75.2070420  73.8266550  68.3344690  75.4227150  74.3365020
  68.2439070  72.4640510  59.9506820  68.5241360  71.6208410  60.3066240
  67.4704800  72.6963620  60.4645570  59.5633560  74.7532900  57.4097820
  59.8659460  74.7600330  56.5016970  60.3028150  74.4030760  57.9065480
  62.7818490  73.6967520  58.3954020  62.4340490  73.0191510  57.8156470
  62.9831260  73.2357030  59.2097410  72.6219790  81.7017240  60.5610730
  73.3838700  82.2713890  60.6670420  72.6374160  81.1344440  61.3319040
  56.1224130  80.2255170  64.7918390  55.4672970  79.9566810  64.1478090
  56.9602080  80.1159650  64.3420370  73.6279760  82.5567340  65.4052660
  73.9988590  81.7734660  64.9988630  74.2681690  83.2456440  65.2269960
  72.6738960  81.9951610  57.7183250  72.9487800  82.9030490  57.5902470
  72.4849700  81.9314140  58.6545240  69.0714570  75.0196460  59.0136880
  69.4899450  74.8327440  58.1733540  68.7650630  74.1675510  59.3239810
  72.5704300  79.9320600  62.7112680  72.1947900  79.1648530  62.2793970
  71.8407420  80.3143300  63.1987610  57.1600060  80.6107740  69.3321730
  57.5273100  80.5235140  70.2117750  56.5910880  79.8474290  69.2328590
  71.9603920  79.0792120  72.3452200  71.7290010  78.8504870  71.4450150
  72.2208470  79.9991670  72.2997090  56.7116060  77.5216830  73.2380150
  55.8172110  77.4883590  73.5773860  57.2513610  77.7203620  74.0031400
  70.3991990  74.3048550  75.1231900  71.2762170  74.3131950  75.5065900
  70.4112830  73.5679390  74.5124250  55.3362210  77.4354100  60.7343720
  54.4326290  77.6984300  60.5595380  55.8202830  77.7065270  59.9543680
  71.8455260  78.1578090  66.0119920  72.3692740  77.6640740  65.3810090
  72.4314680  78.2928450  66.7567490  72.0244980  78.2417960  69.5339470
  71.0747690  78.2081500  69.6484460  72.2057990  79.1518070  69.2989240
  57.8789420  76.4919640  58.6438100  58.5881120  76.0702860  58.1585380
  57.1629360  76.5594870  58.0121450  57.5263580  72.5458970  57.6840750
  58.2491710  73.0867910  58.0021970  57.7988100  72.2722390  56.8082290
  71.3355230  77.4151440  61.9512330  71.8314350  77.1822310  62.7361210
  71.1371300  76.5763280  61.5349970  57.2155770  71.7965160  67.5863370
  57.8631960  71.2462540  67.1458530  57.6357610  72.0508310  68.4079180
  72.7642390  76.0512390  64.4850010  72.6541670  75.8968430  65.4232280
  73.5249980  75.5233330  64.2425420  71.1108110  71.9906520  70.9433010
  71.7480330  72.6040660  71.3092200  71.2583000  72.0267180  69.9982240
  73.6532660  73.8820310  57.7256150  74.5781970  73.7501490  57.5174440
  73.6308450  73.9613130  58.6792600  73.7271150  74.6530970  60.3512860
  72.9322650  74.5876090  60.8805770  73.9314430  75.5881610  60.3398210
  56.9687770  71.9520830  70.3288690  56.6202590  72.4084650  71.0946870
  56.6375470  71.0577960  70.4111120  64.4812590  73.1432710  73.8508110
  64.4201480  73.7354540  74.6003520  65.4212970  73.0358670  73.7058370
  67.1187150  72.8002770  73.4900400  67.7327560  73.1182060  72.8281480
  67.6636710  72.3151360  74.1096260  57.6408410  71.4797030  73.6039460
  58.1891400  71.2985080  72.8405570  57.7063720  70.6891140  74.1395770
  67.8595190  71.3634910  69.8169690  66.9855030  71.6970020  69.6142620
  67.7505940  70.8908090  70.6421560  68.7667170  73.5705780  71.2011410
  68.4380530  72.7557540  70.8213140  69.7149470  73.5275590  71.0777100
  65.6070010  72.2804750  68.7562600  64.8241800  72.7550250  69.0359360
  65.3132940  71.3759580  68.6475780  70.1591080  72.9827850  66.8011690
  70.5999170  72.9272950  65.9533290  69.8898670  73.8985860  66.8721870
  72.0229650  72.6143090  64.8120510  71.9618050  71.6704310  64.6651530
  72.8021680  72.7223180  65.3573970  56.9510420  72.5852230  61.2776320
  57.7089780  72.6981110  60.7040350  56.4887590  73.4221430  61.2319750
  63.4924230  74.6991500  64.2678630  62.6798740  74.3248390  63.9274510
  63.9965870  73.9436580  64.5699820  67.9949210  71.3633950  65.5061700
  68.5978580  71.9354160  65.9810220  67.2542200  71.9273390  65.2835600
  71.1383810  71.7655510  60.7801980  71.3334440  72.6638960  61.0469410
  70.3513680  71.5342590  61.2734930  59.3235570  73.1116280  59.8178290
  59.8528330  72.3246080  59.6886240  59.9563890  73.7907470  60.0513820
  61.5173410  72.8491420  62.8723680  60.8876150  72.1478730  63.0393810
  60.9778550  73.6095550  62.6556840  61.6428970  72.1275400  75.3076170
  61.3613240  72.6309000  74.5436990  62.0248670  71.3297150  74.9418300
  68.2444430  71.5428980  75.8856640  68.1309880  71.8623590  76.7808160
  69.0614170  71.9441490  75.5893920  67.1502580  79.5621450  46.2491380
  67.0696630  78.6476060  45.9783090  66.7367000  80.0588520  45.5431090
  65.2820620  81.3400470  48.1300650  64.5062720  80.8600910  48.4199220
  65.9333550  80.6606120  47.9556810  59.2986450  81.6520280  49.0076410
  58.4671330  81.3968990  49.4072920  59.9067430  81.7231050  49.7434330
  57.7078400  76.6122170  42.7918800  56.8195100  76.9538140  42.6898680
  57.9919590  76.4122490  41.8999630  55.6711410  79.2127820  48.6758500
  56.2427520  78.4450020  48.6762140  55.6712950  79.5116580  47.7665110
  64.7229610  84.0157660  48.1370810  64.6537890  83.0747600  47.9759940
  65.4849470  84.1059070  48.7093380  56.9136280  74.6212180  50.4627430
  56.7339120  73.7237930  50.7430190  56.5116360  75.1684050  51.1374380
  65.7534780  76.8228040  48.3639740  66.1299600  75.9499920  48.2513410
  65.6554290  77.1586740  47.4730180  59.8839790  75.1953670  43.8257180
  59.9906540  76.0957400  44.1325940  58.9732150  75.1471640  43.5351830
  69.5358900  74.3178480  45.2968080  70.3568520  73.8275050  45.3393560
  69.5692980  74.9076140  46.0499920  57.5322950  77.1172680  49.0709770
  58.2133060  77.3811050  49.6897170  57.2171000  76.2773550  49.4047780
  61.7247520  78.1640040  48.1582360  62.2325740  78.6621010  48.7987380
  62.2560760  77.3875240  47.9821720  73.8258450  76.3345230  51.8611710
  73.1210620  76.7226940  51.3426820  74.0916370  77.0295520  52.4632640
  60.0083620  72.8038600  52.4245780  60.0102060  73.3210990  51.6191680
  59.1787930  72.3268780  52.4015710  66.3954710  82.9157910  43.9235680
  65.7771980  83.3807360  43.3598400  66.9077960  83.6085390  44.3405190
  61.2586470  82.4433780  50.6019280  60.9255850  83.0702700  51.2440350
  61.4353150  82.9695660  49.8220950  69.7720380  76.2578860  48.0695620
  69.0675950  76.5463750  48.6498730  70.1332540  77.0678970  47.7095180
  59.6898950  74.5148560  50.4316230  60.0315760  75.3590610  50.1370100
  58.7514760  74.6632300  50.5481570  72.8407300  75.7033650  48.4604830
  71.8932210  75.7372630  48.5920260  73.1657290  76.5172600  48.8454190
  63.3726840  72.0030830  46.7560820  63.6801820  71.4477720  46.0396320
  62.4427540  72.1375290  46.5733810  68.3227340  82.6227960  50.3750890
  68.7396130  82.4088070  49.5404350  69.0467160  82.8800750  50.9459510
  65.7607600  80.0679660  43.4920940  64.8336880  80.0017040  43.7209410
  65.9132420  81.0059790  43.3776180  65.7476680  76.3396660  40.4888100
  64.8080350  76.5010620  40.5740560  66.0659940  77.0582340  39.9424090
  72.2689440  81.0215180  50.4667130  71.4408070  81.0908270  49.9917260
  72.8639920  81.6069490  49.9982960  69.7904890  81.6299960  43.9956190
  69.1717310  81.2919510  43.3482490  69.7729340  80.9859720  44.7035380
  69.2331450  77.8084500  51.4122000  68.8202630  78.6338210  51.6661990
  68.5007400  77.2229540  51.2198360  61.3664240  80.5944400  46.2740670
  60.9621240  79.8821650  45.7786570  61.4527360  80.2497640  47.1628710
  60.0792860  77.3687610  50.0539710  60.6307450  77.4782950  49.2792960
  60.5936370  77.7425210  50.7694940  67.9669590  80.8686770  41.0028940
  68.4062870  80.0309200  40.8566760  68.6798010  81.5016170  41.0893080
  59.7535590  80.8906970  53.6645050  59.6143360  81.7629770  54.0332450
  58.8716950  80.5479780  53.5192990  71.5486730  72.1229580  39.3169980
  71.2359390  72.2156410  40.2169050  72.3099200  72.7010610  39.2667410
  58.0668870  79.4889380  43.7747320  57.9466470  80.2151470  43.1628590
  57.7569760  78.7192290  43.2975230  55.7054240  82.6604520  49.5815960
  55.7834660  82.7953290  48.6371680  56.3195920  81.9520410  49.7744080
  72.7588020  76.8601080  55.2944120  72.1432290  77.3680750  54.7659580
  72.4384440  75.9599410  55.2370060  55.7613760  83.7018690  52.1210420
  55.9244800  83.2324050  51.3029790  56.2266210  83.1942250  52.7859260
  60.5332530  72.8324450  47.1570990  60.0900680  73.6133990  46.8255510
  61.0917520  73.1554340  47.8641930  64.8202340  75.6992970  52.7606310
  64.3581710  75.9075990  53.5726250  64.4180450  74.8852320  52.4576980
  69.8206850  76.9201920  53.8902970  68.9700440  76.6207670  54.2112040
  69.6608640  77.1643930  52.9786790  66.9156560  78.4203670  55.9901760
  67.2409970  77.5867420  55.6503990  67.7036890  78.9432190  56.1380090
  63.6491350  72.4535150  42.0376820  63.0245530  72.4495020  42.7630130
  63.5621470  71.5866110  41.6412790  62.5708430  73.3771780  49.0160590
  62.8680760  74.2834610  48.9352610  63.1193990  72.8890560  48.4020160
  60.3246750  77.9558020  44.8852240  60.0987670  77.7395190  45.7898860
  59.5439280  78.3886480  44.5398210  67.5544510  77.9621390  43.4842890
  66.9553400  78.6857190  43.3006510  68.1024120  77.8998170  42.7019340
  62.7645960  78.8543600  55.5512510  62.6689560  77.9138330  55.4012910
  63.6077940  79.0758670  55.1560580  66.1609380  76.5984930  45.5146170
  66.5538950  76.9157130  44.7014860  66.5226230  75.7196810  45.6290690
  57.8956500  75.2657270  53.7046290  57.5019890  76.1132480  53.9119070
  57.2074900  74.6283640  53.8954930  64.4701550  75.3492240  56.7743030
  63.7799870  75.1564440  57.4089120  65.2133850  75.6326880  57.3067330
  55.3843780  77.1305850  38.9479090  55.3018450  78.0736610  39.0894080
  55.0326840  76.9880760  38.0691440  66.7464520  79.1890680  49.6096950
  66.0145640  79.6977490  49.9587050  66.3488860  78.3720660  49.3085730
  63.1841910  75.8644880  48.0149440  63.1877970  75.4234830  47.1653980
  64.0793030  76.1862210  48.1221260  59.0344290  75.7471370  46.9743650
  58.6944340  76.2246600  47.7310700  58.2721610  75.2936490  46.6144750
  63.2462060  76.8656960  41.0056200  63.3674880  76.8243440  41.9542020
  62.8610570  77.7281110  40.8502930  67.2090430  74.6424360  49.0219890
  67.2263170  75.0933010  49.8661740  66.9606010  73.7430000  49.2353330
  62.2583560  79.1758100  40.4039500  61.6900460  78.7276350  39.7775410
  62.9672560  79.5350880  39.8704650  70.6361180  72.0556540  54.8606270
  70.9606950  71.3246200  55.3864250  70.6717690  71.7370180  53.9587260
  57.3352740  83.0770120  54.2806230  56.9507530  82.4363790  54.8789190
  57.6464930  83.7806240  54.8500960  63.4849880  79.9246660  49.7614850
  63.8520010  79.4505230  50.5076190  63.2954940  80.7988230  50.1023190
  56.3490370  74.6690350  45.8908320  56.0637290  74.3046020  46.7286940
  56.2869230  73.9370810  45.2771460  61.2749250  78.9655300  52.0799060
  60.9706320  79.8447280  52.3049420  62.2295710  79.0255090  52.1156500
  59.8031040  83.1716290  42.6765910  59.0293300  82.6313910  42.5164630
  60.5325670  82.6522900  42.3383670  70.5619020  82.1681650  48.4692300
  71.2818140  82.6636940  48.0788410  70.3600840  81.4899540  47.8246170
  66.0228960  73.5619610  42.6121690  65.2093570  73.0632780  42.5367000
  65.8290910  74.4017860  42.1958040  65.9437820  82.2390710  54.3561300
  65.8775130  81.3186380  54.1018890  65.3142960  82.3366150  55.0705940
  68.7377350  77.9339260  40.9083850  69.6256970  78.2456490  40.7335190
  68.7082440  77.0611510  40.5164430  59.8468440  82.8396670  46.3144720
  60.3647110  82.0364930  46.2601610  59.3952460  82.7775810  47.1561550
  57.3312980  79.8058040  53.2270420  56.9727920  80.4711890  53.8143760
  57.0367540  78.9741590  53.5983040  60.5326100  80.2642280  56.1109970
  60.2326240  80.4099460  55.2137790  61.3037340  79.7047570  56.0183360
  71.0091620  79.2451100  40.3763710  70.9255340  79.6765320  39.5260150
  71.7285810  79.7049450  40.8090530  72.0865760  81.7018620  53.4533680
  71.3613950  82.2947400  53.2563070  72.6141220  81.6942160  52.6547050
  67.6165350  83.4278790  46.9517530  67.9689170  82.8306920  46.2918900
  66.7327680  83.1023020  47.1225780  55.8421030  79.8049300  39.8505020
  56.7115880  80.0874100  40.1340940  55.3511350  80.6185170  39.7353830
  63.0055840  81.1922510  43.9713300  63.4618620  82.0027760  44.1973490
  62.6544050  80.8745650  44.8031790  58.9067620  71.5360160  44.4435820
  58.7782250  71.5278060  45.3920740  58.0829640  71.8743250  44.0926830
  55.9061550  73.2951280  53.9042520  55.1920070  73.4948200  54.5095130
  56.3256590  72.5190850  54.2757320  70.0092500  82.9081760  41.3036350
  69.7214200  83.3694450  42.0914230  70.8044670  82.4479530  41.5720570
  57.8267540  81.6222770  41.9787080  57.2195490  82.3621670  41.9882380
  58.3016890  81.7122130  41.1525280  67.4000330  75.7873590  51.6543970
  67.7681150  74.9668800  51.9823540  66.5398530  75.8475480  52.0699620
  70.7662360  74.7430530  42.4631530  70.1375520  74.8476200  41.7489760
  70.2714280  74.9627310  43.2525410  62.7346390  77.0216480  43.8789410
  62.0262540  77.4902820  44.3203020  63.0190870  76.3638490  44.5134600
  64.3602320  78.4413180  51.8781940  64.8587570  78.9159000  52.5433790
  64.5025270  77.5176700  52.0851970  66.7661820  73.7467140  45.3185200
  66.6429600  73.7653270  44.3694710  67.7146380  73.7946080  45.4383600
  60.9381410  75.3301560  41.2540120  61.7871940  75.7671710  41.1880310
  60.5712680  75.6421820  42.0812180  71.5669180  74.6581140  52.7210330
  71.0642780  75.3986540  53.0604140  72.3825840  75.0465140  52.4047120
  69.8591190  79.9014320  46.1671690  68.9181330  79.9164550  46.3419380
  70.1735260  79.1150280  46.6131990  59.8372830  81.5833920  39.7275650
  60.6036100  81.4715280  40.2901080  59.9147520  80.8871890  39.0752420
  58.5319590  79.0158990  40.4108540  58.6123180  78.0686500  40.5225940
  59.4239340  79.3465870  40.5169200  56.0590390  80.8373910  55.6464710
  56.5629410  80.2581190  56.2180940  55.3197810  81.1214140  56.1841080
  62.9614010  83.5588100  39.2011000  62.8564650  82.9440450  39.9272380
  62.7938230  83.0353990  38.4174010  63.1128330  82.2444900  55.1800230
  62.3474000  82.8129900  55.0954900  63.2944290  81.9521110  54.2868460
  66.2016740  82.6208130  39.8052990  65.6526840  83.0677430  40.4495730
  66.8236000  82.1157380  40.3290660  58.0913470  78.9803500  56.5414780
  58.1318810  78.6817370  57.4500010  58.9458970  79.3811110  56.3822300
  61.8691860  81.5799050  41.7018290  62.2908280  81.4138920  42.5449680
  61.9942700  80.7699280  41.2073430  60.0319280  77.5595600  54.5089270
  59.5015740  77.0686550  53.8812610  60.7007350  77.9879800  53.9747200
  64.3819500  80.6036660  38.9495390  64.9025160  79.8885680  38.5836540
  65.0287900  81.2422530  39.2495900  68.9297340  82.0265060  54.2730460
  69.3438360  82.1810140  55.1220880  67.9948340  82.1520280  54.4356240
  69.4019510  79.3661220  56.2769610  69.9840280  78.6113540  56.1890090
  69.5781280  79.8968660  55.5001090  60.5191580  74.5257970  54.5886560
  60.4248450  73.9078720  53.8637430  59.9388970  75.2524260  54.3616470
  63.2853020  73.0831210  51.6213950  62.8370320  73.1055470  50.7759500
  62.6518220  72.6850230  52.2184250  63.6912570  81.9785540  52.2426390
  64.1100680  82.8218270  52.0702630  62.7721200  82.1157580  52.0133170
  66.0276470  79.7101720  53.6264230  66.1472680  79.1142860  54.3659070
  66.8870470  79.7471410  53.2065530  68.3664370  80.2638910  52.2026740
  67.8399590  80.7881530  51.5991880  68.7095710  80.8966300  52.8336470
  60.7650760  77.6532280  38.6476450  60.5639820  76.7899640  39.0089790
  60.5942810  77.5665640  37.7098050  62.7945240  76.2523070  54.8840050
  63.3844930  75.9438920  55.5717870  61.9765480  75.7802820  55.0399950
  67.6138670  75.8688880  55.1173070  66.9254190  75.2070420  55.0523060
  68.3344690  75.4227150  55.5621530  68.2439070  72.4640510  41.1763330
  68.5241360  71.6208410  41.5322750  67.4704800  72.6963620  41.6902080
  62.7818490  73.6967520  39.6210530  62.4340490  73.0191510  39.0412980
  62.9831260  73.2357030  40.4353920  72.6219790  81.7017240  41.7867240
  73.3838700  82.2713890  41.8926930  72.6374160  81.1344440  42.5575550
  56.1224130  80.2255170  46.0174900  55.4672970  79.9566810  45.3734600
  56.9602080  80.1159650  45.5676880  73.6279760  82.5567340  46.6309170
  73.9988590  81.7734660  46.2245140  74.2681690  83.2456440  46.4526470
  72.6738960  81.9951610  38.9439760  72.9487800  82.9030490  38.8158980
  72.4849700  81.9314140  39.8801750  69.0714570  75.0196460  40.2393390
  69.4899450  74.8327440  39.3990050  68.7650630  74.1675510  40.5496320
  72.5704300  79.9320600  43.9369190  72.1947900  79.1648530  43.5050480
  71.8407420  80.3143300  44.4244120  57.1600060  80.6107740  50.5578240
  57.5273100  80.5235140  51.4374260  56.5910880  79.8474290  50.4585100
  71.9603920  79.0792120  53.5708710  71.7290010  78.8504870  52.6706660
  72.2208470  79.9991670  53.5253600  56.7116060  77.5216830  54.4636660
  55.8172110  77.4883590  54.8030370  57.2513610  77.7203620  55.2287910
  70.3991990  74.3048550  56.3488410  71.2762170  74.3131950  56.7322410
  70.4112830  73.5679390  55.7380760  55.3362210  77.4354100  41.9600230
  54.4326290  77.6984300  41.7851890  55.8202830  77.7065270  41.1800190
  71.8455260  78.1578090  47.2376430  72.3692740  77.6640740  46.6066600
  72.4314680  78.2928450  47.9824000  72.0244980  78.2417960  50.7595980
  71.0747690  78.2081500  50.8740970  72.2057990  79.1518070  50.5245750
  57.8789420  76.4919640  39.8694610  58.5881120  76.0702860  39.3841890
  57.1629360  76.5594870  39.2377960  57.5263580  72.5458970  38.9097260
  58.2491710  73.0867910  39.2278480  57.7988100  72.2722390  38.0338800
  71.3355230  77.4151440  43.1768840  71.8314350  77.1822310  43.9617720
  71.1371300  76.5763280  42.7606480  72.7642390  76.0512390  45.7106520
  72.6541670  75.8968430  46.6488790  73.5249980  75.5233330  45.4681930
  71.1108110  71.9906520  52.1689520  71.7480330  72.6040660  52.5348710
  71.2583000  72.0267180  51.2238750  73.6532660  73.8820310  38.9512660
  74.5781970  73.7501490  38.7430950  73.6308450  73.9613130  39.9049110
  73.7271150  74.6530970  41.5769370  72.9322650  74.5876090  42.1062280
  73.9314430  75.5881610  41.5654720  64.4812590  73.1432710  55.0764620
  64.4201480  73.7354540  55.8260030  65.4212970  73.0358670  54.9314880
  67.1187150  72.8002770  54.7156910  67.7327560  73.1182060  54.0537990
  67.6636710  72.3151360  55.3352770  57.6408410  71.4797030  54.8295970
  58.1891400  71.2985080  54.0662080  57.7063720  70.6891140  55.3652280
  67.8595190  71.3634910  51.0426200  66.9855030  71.6970020  50.8399130
  67.7505940  70.8908090  51.8678070  68.7667170  73.5705780  52.4267920
  68.4380530  72.7557540  52.0469650  69.7149470  73.5275590  52.3033610
  65.6070010  72.2804750  49.9819110  64.8241800  72.7550250  50.2615870
  65.3132940  71.3759580  49.8732290  70.1591080  72.9827850  48.0268200
  70.5999170  72.9272950  47.1789800  69.8898670  73.8985860  48.0978380
  72.0229650  72.6143090  46.0377020  71.9618050  71.6704310  45.8908040
  72.8021680  72.7223180  46.5830480  56.9510420  72.5852230  42.5032830
  57.7089780  72.6981110  41.9296860  56.4887590  73.4221430  42.4576260
  63.4924230  74.6991500  45.4935140  62.6798740  74.3248390  45.1531020
  63.9965870  73.9436580  45.7956330  67.9949210  71.3633950  46.7318210
  68.5978580  71.9354160  47.2066730  67.2542200  71.9273390  46.5092110
  71.1383810  71.7655510  42.0058490  71.3334440  72.6638960  42.2725920
  70.3513680  71.5342590  42.4991440  59.3235570  73.1116280  41.0434800
  59.8528330  72.3246080  40.9142750  59.9563890  73.7907470  41.2770330
  61.5173410  72.8491420  44.0980190  60.8876150  72.1478730  44.2650320
  60.9778550  73.6095550  43.8813350  61.6428970  72.1275400  56.5332680
  61.3613240  72.6309000  55.7693500  62.0248670  71.3297150  56.1674810
  68.2444430  71.5428980  57.1113150  68.1309880  71.8623590  58.0064670
  69.0614170  71.9441490  56.8150430  67.1502580  79.5621450  27.4747890
  67.0696630  78.6476060  27.2039600  66.7367000  80.0588520  26.7687600
  65.2820620  81.3400470  29.3557160  64.5062720  80.8600910  29.6455730
  65.9333550  80.6606120  29.1813320  59.2986450  81.6520280  30.2332920
  58.4671330  81.3968990  30.6329430  59.9067430  81.7231050  30.9690840
  57.7078400  76.6122170  24.0175310  56.8195100  76.9538140  23.9155190
  57.9919590  76.4122490  23.1256140  55.6711410  79.2127820  29.9015010
  56.2427520  78.4450020  29.9018650  55.6712950  79.5116580  28.9921620
  64.7229610  84.0157660  29.3627320  64.6537890  83.0747600  29.2016450
  65.4849470  84.1059070  29.9349890  56.9136280  74.6212180  31.6883940
  56.7339120  73.7237930  31.9686700  56.5116360  75.1684050  32.3630890
  65.7534780  76.8228040  29.5896250  66.1299600  75.9499920  29.4769920
  65.6554290  77.1586740  28.6986690  59.8839790  75.1953670  25.0513690
  59.9906540  76.0957400  25.3582450  58.9732150  75.1471640  24.7608340
  69.5358900  74.3178480  26.5224590  70.3568520  73.8275050  26.5650070
  69.5692980  74.9076140  27.2756430  57.5322950  77.1172680  30.2966280
  58.2133060  77.3811050  30.9153680  57.2171000  76.2773550  30.6304290
  61.7247520  78.1640040  29.3838870  62.2325740  78.6621010  30.0243890
  62.2560760  77.3875240  29.2078230  73.8258450  76.3345230  33.0868220
  73.1210620  76.7226940  32.5683330  74.0916370  77.0295520  33.6889150
  66.3954710  82.9157910  25.1492190  65.7771980  83.3807360  24.5854910
  66.9077960  83.6085390  25.5661700  61.2586470  82.4433780  31.8275790
  60.9255850  83.0702700  32.4696860  61.4353150  82.9695660  31.0477460
  69.7720380  76.2578860  29.2952130  69.0675950  76.5463750  29.8755240
  70.1332540  77.0678970  28.9351690  59.6898950  74.5148560  31.6572740
  60.0315760  75.3590610  31.3626610  58.7514760  74.6632300  31.7738080
  72.8407300  75.7033650  29.6861340  71.8932210  75.7372630  29.8176770
  73.1657290  76.5172600  30.0710700  63.3726840  72.0030830  27.9817330
  63.6801820  71.4477720  27.2652830  62.4427540  72.1375290  27.7990320
  68.3227340  82.6227960  31.6007400  68.7396130  82.4088070  30.7660860
  69.0467160  82.8800750  32.1716020  65.7607600  80.0679660  24.7177450
  64.8336880  80.0017040  24.9465920  65.9132420  81.0059790  24.6032690
  65.7476680  76.3396660  21.7144610  64.8080350  76.5010620  21.7997070
  66.0659940  77.0582340  21.1680600  72.2689440  81.0215180  31.6923640
  71.4408070  81.0908270  31.2173770  72.8639920  81.6069490  31.2239470
  69.7904890  81.6299960  25.2212700  69.1717310  81.2919510  24.5739000
  69.7729340  80.9859720  25.9291890  69.2331450  77.8084500  32.6378510
  68.8202630  78.6338210  32.8918500  68.5007400  77.2229540  32.4454870
  61.3664240  80.5944400  27.4997180  60.9621240  79.8821650  27.0043080
  61.4527360  80.2497640  28.3885220  60.0792860  77.3687610  31.2796220
  60.6307450  77.4782950  30.5049470  60.5936370  77.7425210  31.9951450
  67.9669590  80.8686770  22.2285450  68.4062870  80.0309200  22.0823270
  68.6798010  81.5016170  22.3149590  59.7535590  80.8906970  34.8901560
  59.6143360  81.7629770  35.2588960  58.8716950  80.5479780  34.7449500
  71.5486730  72.1229580  20.5426490  71.2359390  72.2156410  21.4425560
  72.3099200  72.7010610  20.4923920  58.0668870  79.4889380  25.0003830
  57.9466470  80.2151470  24.3885100  57.7569760  78.7192290  24.5231740
  55.7054240  82.6604520  30.8072470  55.7834660  82.7953290  29.8628190
  56.3195920  81.9520410  31.0000590  72.7588020  76.8601080  36.5200630
  72.1432290  77.3680750  35.9916090  72.4384440  75.9599410  36.4626570
  55.7613760  83.7018690  33.3466930  55.9244800  83.2324050  32.5286300
  56.2266210  83.1942250  34.0115770  60.5332530  72.8324450  28.3827500
  60.0900680  73.6133990  28.0512020  61.0917520  73.1554340  29.0898440
  64.8202340  75.6992970  33.9862820  64.3581710  75.9075990  34.7982760
  64.4180450  74.8852320  33.6833490  69.8206850  76.9201920  35.1159480
  68.9700440  76.6207670  35.4368550  69.6608640  77.1643930  34.2043300
  66.9156560  78.4203670  37.2158270  67.2409970  77.5867420  36.8760500
  67.7036890  78.9432190  37.3636600  63.6491350  72.4535150  23.2633330
  63.0245530  72.4495020  23.9886640  63.5621470  71.5866110  22.8669300
  62.5708430  73.3771780  30.2417100  62.8680760  74.2834610  30.1609120
  63.1193990  72.8890560  29.6276670  60.3246750  77.9558020  26.1108750
  60.0987670  77.7395190  27.0155370  59.5439280  78.3886480  25.7654720
  67.5544510  77.9621390  24.7099400  66.9553400  78.6857190  24.5263020
  68.1024120  77.8998170  23.9275850  62.7645960  78.8543600  36.7769020
  62.6689560  77.9138330  36.6269420  63.6077940  79.0758670  36.3817090
  66.1609380  76.5984930  26.7402680  66.5538950  76.9157130  25.9271370
  66.5226230  75.7196810  26.8547200  57.8956500  75.2657270  34.9302800
  57.5019890  76.1132480  35.1375580  57.2074900  74.6283640  35.1211440
  64.4701550  75.3492240  37.9999540  63.7799870  75.1564440  38.6345630
  65.2133850  75.6326880  38.5323840  55.1973550  73.1885730  28.9632880
  54.9086600  73.7588590  29.6757860  55.9419310  72.7090180  29.3264110
  55.3843780  77.1305850  20.1735600  55.3018450  78.0736610  20.3150590
  55.0326840  76.9880760  19.2947950  66.7464520  79.1890680  30.8353460
  66.0145640  79.6977490  31.1843560  66.3488860  78.3720660  30.5342240
  63.1841910  75.8644880  29.2405950  63.1877970  75.4234830  28.3910490
  64.0793030  76.1862210  29.3477770  59.0344290  75.7471370  28.2000160
  58.6944340  76.2246600  28.9567210  58.2721610  75.2936490  27.8401260
  63.2462060  76.8656960  22.2312710  63.3674880  76.8243440  23.1798530
  62.8610570  77.7281110  22.0759440  67.2090430  74.6424360  30.2476400
  67.2263170  75.0933010  31.0918250  66.9606010  73.7430000  30.4609840
  62.2583560  79.1758100  21.6296010  61.6900460  78.7276350  21.0031920
  62.9672560  79.5350880  21.0961160  70.6361180  72.0556540  36.0862780
  70.9606950  71.3246200  36.6120760  70.6717690  71.7370180  35.1843770
  57.3352740  83.0770120  35.5062740  56.9507530  82.4363790  36.1045700
  57.6464930  83.7806240  36.0757470  63.4849880  79.9246660  30.9871360
  63.8520010  79.4505230  31.7332700  63.2954940  80.7988230  31.3279700
  56.3490370  74.6690350  27.1164830  56.0637290  74.3046020  27.9543450
  56.2869230  73.9370810  26.5027970  61.2749250  78.9655300  33.3055570
  60.9706320  79.8447280  33.5305930  62.2295710  79.0255090  33.3413010
  59.8031040  83.1716290  23.9022420  59.0293300  82.6313910  23.7421140
  60.5325670  82.6522900  23.5640180  70.5619020  82.1681650  29.6948810
  71.2818140  82.6636940  29.3044920  70.3600840  81.4899540  29.0502680
  66.0228960  73.5619610  23.8378200  65.2093570  73.0632780  23.7623510
  65.8290910  74.4017860  23.4214550  65.9437820  82.2390710  35.5817810
  65.8775130  81.3186380  35.3275400  65.3142960  82.3366150  36.2962450
  68.7377350  77.9339260  22.1340360  69.6256970  78.2456490  21.9591700
  68.7082440  77.0611510  21.7420940  59.8468440  82.8396670  27.5401230
  60.3647110  82.0364930  27.4858120  59.3952460  82.7775810  28.3818060
  57.3312980  79.8058040  34.4526930  56.9727920  80.4711890  35.0400270
  57.0367540  78.9741590  34.8239550  60.5326100  80.2642280  37.3366480
  60.2326240  80.4099460  36.4394300  61.3037340  79.7047570  37.2439870
  71.0091620  79.2451100  21.6020220  70.9255340  79.6765320  20.7516660
  71.7285810  79.7049450  22.0347040  72.0865760  81.7018620  34.6790190
  71.3613950  82.2947400  34.4819580  72.6141220  81.6942160  33.8803560
  67.6165350  83.4278790  28.1774040  67.9689170  82.8306920  27.5175410
  66.7327680  83.1023020  28.3482290  55.8421030  79.8049300  21.0761530
  56.7115880  80.0874100  21.3597450  55.3511350  80.6185170  20.9610340
  63.0055840  81.1922510  25.1969810  63.4618620  82.0027760  25.4230000
  62.6544050  80.8745650  26.0288300  58.9067620  71.5360160  25.6692330
  58.7782250  71.5278060  26.6177250  58.0829640  71.8743250  25.3183340
  55.9061550  73.2951280  35.1299030  55.1920070  73.4948200  35.7351640
  56.3256590  72.5190850  35.5013830  70.0092500  82.9081760  22.5292860
  69.7214200  83.3694450  23.3170740  70.8044670  82.4479530  22.7977080
  57.8267540  81.6222770  23.2043590  57.2195490  82.3621670  23.2138890
  58.3016890  81.7122130  22.3781790  67.4000330  75.7873590  32.8800480
  67.7681150  74.9668800  33.2080050  66.5398530  75.8475480  33.2956130
  70.7662360  74.7430530  23.6888040  70.1375520  74.8476200  22.9746270
  70.2714280  74.9627310  24.4781920  62.7346390  77.0216480  25.1045920
  62.0262540  77.4902820  25.5459530  63.0190870  76.3638490  25.7391110
  64.3602320  78.4413180  33.1038450  64.8587570  78.9159000  33.7690300
  64.5025270  77.5176700  33.3108480  66.7661820  73.7467140  26.5441710
  66.6429600  73.7653270  25.5951220  67.7146380  73.7946080  26.6640110
  60.9381410  75.3301560  22.4796630  61.7871940  75.7671710  22.4136820
  60.5712680  75.6421820  23.3068690  71.5669180  74.6581140  33.9466840
  71.0642780  75.3986540  34.2860650  72.3825840  75.0465140  33.6303630
  69.8591190  79.9014320  27.3928200  68.9181330  79.9164550  27.5675890
  70.1735260  79.1150280  27.8388500  59.8372830  81.5833920  20.9532160
  60.6036100  81.4715280  21.5157590  59.9147520  80.8871890  20.3008930
  58.5319590  79.0158990  21.6365050  58.6123180  78.0686500  21.7482450
  59.4239340  79.3465870  21.7425710  56.0590390  80.8373910  36.8721220
  56.5629410  80.2581190  37.4437450  55.3197810  81.1214140  37.4097590
  62.9614010  83.5588100  20.4267510  62.8564650  82.9440450  21.1528890
  62.7938230  83.0353990  19.6430520  63.1128330  82.2444900  36.4056740
  62.3474000  82.8129900  36.3211410  63.2944290  81.9521110  35.5124970
  66.2016740  82.6208130  21.0309500  65.6526840  83.0677430  21.6752240
  66.8236000  82.1157380  21.5547170  58.0913470  78.9803500  37.7671290
  58.1318810  78.6817370  38.6756520  58.9458970  79.3811110  37.6078810
  61.8691860  81.5799050  22.9274800  62.2908280  81.4138920  23.7706190
  61.9942700  80.7699280  22.4329940  60.0319280  77.5595600  35.7345780
  59.5015740  77.0686550  35.1069120  60.7007350  77.9879800  35.2003710
  64.3819500  80.6036660  20.1751900  64.9025160  79.8885680  19.8093050
  65.0287900  81.2422530  20.4752410  68.9297340  82.0265060  35.4986970
  69.3438360  82.1810140  36.3477390  67.9948340  82.1520280  35.6612750
  69.4019510  79.3661220  37.5026120  69.9840280  78.6113540  37.4146600
  69.5781280  79.8968660  36.7257600  63.2853020  73.0831210  32.8470460
  62.8370320  73.1055470  32.0016010  62.6518220  72.6850230  33.4440760
  63.6912570  81.9785540  33.4682900  64.1100680  82.8218270  33.2959140
  62.7721200  82.1157580  33.2389680  66.0276470  79.7101720  34.8520740
  66.1472680  79.1142860  35.5915580  66.8870470  79.7471410  34.4322040
  68.3664370  80.2638910  33.4283250  67.8399590  80.7881530  32.8248390
  68.7095710  80.8966300  34.0592980  60.7650760  77.6532280  19.8732960
  60.5639820  76.7899640  20.2346300  60.5942810  77.5665640  18.9354560
  62.7945240  76.2523070  36.1096560  63.3844930  75.9438920  36.7974380
  61.9765480  75.7802820  36.2656460  67.6138670  75.8688880  36.3429580
  66.9254190  75.2070420  36.2779570  68.3344690  75.4227150  36.7878040
  68.2439070  72.4640510  22.4019840  68.5241360  71.6208410  22.7579260
  67.4704800  72.6963620  22.9158590  59.5633560  74.7532900  19.8610840
  59.8659460  74.7600330  18.9529990  60.3028150  74.4030760  20.3578500
  62.7818490  73.6967520  20.8467040  62.4340490  73.0191510  20.2669490
  62.9831260  73.2357030  21.6610430  72.6219790  81.7017240  23.0123750
  73.3838700  82.2713890  23.1183440  72.6374160  81.1344440  23.7832060
  56.1224130  80.2255170  27.2431410  55.4672970  79.9566810  26.5991110
  56.9602080  80.1159650  26.7933390  73.6279760  82.5567340  27.8565680
  73.9988590  81.7734660  27.4501650  74.2681690  83.2456440  27.6782980
  72.6738960  81.9951610  20.1696270  72.9487800  82.9030490  20.0415490
  72.4849700  81.9314140  21.1058260  69.0714570  75.0196460  21.4649900
  69.4899450  74.8327440  20.6246560  68.7650630  74.1675510  21.7752830
  72.5704300  79.9320600  25.1625700  72.1947900  79.1648530  24.7306990
  71.8407420  80.3143300  25.6500630  57.1600060  80.6107740  31.7834750
  57.5273100  80.5235140  32.6630770  56.5910880  79.8474290  31.6841610
  71.9603920  79.0792120  34.7965220  71.7290010  78.8504870  33.8963170
  72.2208470  79.9991670  34.7510110  56.7116060  77.5216830  35.6893170
  55.8172110  77.4883590  36.0286880  57.2513610  77.7203620  36.4544420
  70.3991990  74.3048550  37.5744920  71.2762170  74.3131950  37.9578920
  70.4112830  73.5679390  36.9637270  55.3362210  77.4354100  23.1856740
  54.4326290  77.6984300  23.0108400  55.8202830  77.7065270  22.4056700
  71.8455260  78.1578090  28.4632940  72.3692740  77.6640740  27.8323110
  72.4314680  78.2928450  29.2080510  72.0244980  78.2417960  31.9852490
  71.0747690  78.2081500  32.0997480  72.2057990  79.1518070  31.7502260
  57.8789420  76.4919640  21.0951120  58.5881120  76.0702860  20.6098400
  57.1629360  76.5594870  20.4634470  57.5263580  72.5458970  20.1353770
  58.2491710  73.0867910  20.4534990  57.7988100  72.2722390  19.2595310
  71.3355230  77.4151440  24.4025350  71.8314350  77.1822310  25.1874230
  71.1371300  76.5763280  23.9862990  57.2155770  71.7965160  30.0376390
  57.8631960  71.2462540  29.5971550  57.6357610  72.0508310  30.8592200
  72.7642390  76.0512390  26.9363030  72.6541670  75.8968430  27.8745300
  73.5249980  75.5233330  26.6938440  71.1108110  71.9906520  33.3946030
  71.7480330  72.6040660  33.7605220  71.2583000  72.0267180  32.4495260
  73.6532660  73.8820310  20.1769170  74.5781970  73.7501490  19.9687460
  73.6308450  73.9613130  21.1305620  73.7271150  74.6530970  22.8025880
  72.9322650  74.5876090  23.3318790  73.9314430  75.5881610  22.7911230
  56.9687770  71.9520830  32.7801710  56.6202590  72.4084650  33.5459890
  56.6375470  71.0577960  32.8624140  67.1187150  72.8002770  35.9413420
  67.7327560  73.1182060  35.2794500  67.6636710  72.3151360  36.5609280
  67.8595190  71.3634910  32.2682710  66.9855030  71.6970020  32.0655640
  67.7505940  70.8908090  33.0934580  68.7667170  73.5705780  33.6524430
  68.4380530  72.7557540  33.2726160  69.7149470  73.5275590  33.5290120
  65.6070010  72.2804750  31.2075620  64.8241800  72.7550250  31.4872380
  65.3132940  71.3759580  31.0988800  70.1591080  72.9827850  29.2524710
  70.5999170  72.9272950  28.4046310  69.8898670  73.8985860  29.3234890
  72.0229650  72.6143090  27.2633530  71.9618050  71.6704310  27.1164550
  72.8021680  72.7223180  27.8086990  56.9510420  72.5852230  23.7289340
  57.7089780  72.6981110  23.1553370  56.4887590  73.4221430  23.6832770
  63.4924230  74.6991500  26.7191650  62.6798740  74.3248390  26.3787530
  63.9965870  73.9436580  27.0212840  67.9949210  71.3633950  27.9574720
  68.5978580  71.9354160  28.4323240  67.2542200  71.9273390  27.7348620
  71.1383810  71.7655510  23.2315000  71.3334440  72.6638960  23.4982430
  70.3513680  71.5342590  23.7247950  59.3235570  73.1116280  22.2691310
  59.8528330  72.3246080  22.1399260  59.9563890  73.7907470  22.5026840
  61.5173410  72.8491420  25.3236700  60.8876150  72.1478730  25.4906830
  60.9778550  73.6095550  25.1069860  68.2444430  71.5428980  38.3369660
  68.1309880  71.8623590  39.2321180  69.0614170  71.9441490  38.0406940
  67.1502580  79.5621450   8.7004400  67.0696630  78.6476060   8.4296110
  66.7367000  80.0588520   7.9944110  65.2820620  81.3400470  10.5813670
  64.5062720  80.8600910  10.8712240  65.9333550  80.6606120  10.4069830
  59.2986450  81.6520280  11.4589430  58.4671330  81.3968990  11.8585940
  59.9067430  81.7231050  12.1947350  57.7078400  76.6122170   5.2431820
  56.8195100  76.9538140   5.1411700  57.9919590  76.4122490   4.3512650
  55.6711410  79.2127820  11.1271520  56.2427520  78.4450020  11.1275160
  55.6712950  79.5116580  10.2178130  64.7229610  84.0157660  10.5883830
  64.6537890  83.0747600  10.4272960  65.4849470  84.1059070  11.1606400
  56.9136280  74.6212180  12.9140450  56.7339120  73.7237930  13.1943210
  56.5116360  75.1684050  13.5887400  65.7534780  76.8228040  10.8152760
  66.1299600  75.9499920  10.7026430  65.6554290  77.1586740   9.9243200
  59.8839790  75.1953670   6.2770200  59.9906540  76.0957400   6.5838960
  58.9732150  75.1471640   5.9864850  69.5358900  74.3178480   7.7481100
  70.3568520  73.8275050   7.7906580  69.5692980  74.9076140   8.5012940
  57.5322950  77.1172680  11.5222790  58.2133060  77.3811050  12.1410190
  57.2171000  76.2773550  11.8560800  61.7247520  78.1640040  10.6095380
  62.2325740  78.6621010  11.2500400  62.2560760  77.3875240  10.4334740
  73.8258450  76.3345230  14.3124730  73.1210620  76.7226940  13.7939840
  74.0916370  77.0295520  14.9145660  60.0083620  72.8038600  14.8758800
  60.0102060  73.3210990  14.0704700  59.1787930  72.3268780  14.8528730
  66.3954710  82.9157910   6.3748700  65.7771980  83.3807360   5.8111420
  66.9077960  83.6085390   6.7918210  61.2586470  82.4433780  13.0532300
  60.9255850  83.0702700  13.6953370  61.4353150  82.9695660  12.2733970
  69.7720380  76.2578860  10.5208640  69.0675950  76.5463750  11.1011750
  70.1332540  77.0678970  10.1608200  59.6898950  74.5148560  12.8829250
  60.0315760  75.3590610  12.5883120  58.7514760  74.6632300  12.9994590
  72.8407300  75.7033650  10.9117850  71.8932210  75.7372630  11.0433280
  73.1657290  76.5172600  11.2967210  63.3726840  72.0030830   9.2073840
  63.6801820  71.4477720   8.4909340  62.4427540  72.1375290   9.0246830
  68.3227340  82.6227960  12.8263910  68.7396130  82.4088070  11.9917370
  69.0467160  82.8800750  13.3972530  65.7607600  80.0679660   5.9433960
  64.8336880  80.0017040   6.1722430  65.9132420  81.0059790   5.8289200
  65.7476680  76.3396660   2.9401120  64.8080350  76.5010620   3.0253580
  66.0659940  77.0582340   2.3937110  72.2689440  81.0215180  12.9180150
  71.4408070  81.0908270  12.4430280  72.8639920  81.6069490  12.4495980
  69.7904890  81.6299960   6.4469210  69.1717310  81.2919510   5.7995510
  69.7729340  80.9859720   7.1548400  69.2331450  77.8084500  13.8635020
  68.8202630  78.6338210  14.1175010  68.5007400  77.2229540  13.6711380
  61.3664240  80.5944400   8.7253690  60.9621240  79.8821650   8.2299590
  61.4527360  80.2497640   9.6141730  60.0792860  77.3687610  12.5052730
  60.6307450  77.4782950  11.7305980  60.5936370  77.7425210  13.2207960
  67.9669590  80.8686770   3.4541960  68.4062870  80.0309200   3.3079780
  68.6798010  81.5016170   3.5406100  59.7535590  80.8906970  16.1158070
  59.6143360  81.7629770  16.4845470  58.8716950  80.5479780  15.9706010
  71.5486730  72.1229580   1.7683000  71.2359390  72.2156410   2.6682070
  72.3099200  72.7010610   1.7180430  58.0668870  79.4889380   6.2260340
  57.9466470  80.2151470   5.6141610  57.7569760  78.7192290   5.7488250
  55.7054240  82.6604520  12.0328980  55.7834660  82.7953290  11.0884700
  56.3195920  81.9520410  12.2257100  72.7588020  76.8601080  17.7457140
  72.1432290  77.3680750  17.2172600  72.4384440  75.9599410  17.6883080
  55.7613760  83.7018690  14.5723440  55.9244800  83.2324050  13.7542810
  56.2266210  83.1942250  15.2372280  60.5332530  72.8324450   9.6084010
  60.0900680  73.6133990   9.2768530  61.0917520  73.1554340  10.3154950
  64.8202340  75.6992970  15.2119330  64.3581710  75.9075990  16.0239270
  64.4180450  74.8852320  14.9090000  69.8206850  76.9201920  16.3415990
  68.9700440  76.6207670  16.6625060  69.6608640  77.1643930  15.4299810
  66.9156560  78.4203670  18.4414780  67.2409970  77.5867420  18.1017010
  67.7036890  78.9432190  18.5893110  63.6491350  72.4535150   4.4889840
  63.0245530  72.4495020   5.2143150  63.5621470  71.5866110   4.0925810
  62.5708430  73.3771780  11.4673610  62.8680760  74.2834610  11.3865630
  63.1193990  72.8890560  10.8533180  60.3246750  77.9558020   7.3365260
  60.0987670  77.7395190   8.2411880  59.5439280  78.3886480   6.9911230
  67.5544510  77.9621390   5.9355910  66.9553400  78.6857190   5.7519530
  68.1024120  77.8998170   5.1532360  62.7645960  78.8543600  18.0025530
  62.6689560  77.9138330  17.8525930  63.6077940  79.0758670  17.6073600
  66.1609380  76.5984930   7.9659190  66.5538950  76.9157130   7.1527880
  66.5226230  75.7196810   8.0803710  57.8956500  75.2657270  16.1559310
  57.5019890  76.1132480  16.3632090  57.2074900  74.6283640  16.3467950
  64.4701550  75.3492240  19.2256050  63.7799870  75.1564440  19.8602140
  65.2133850  75.6326880  19.7580350  55.1973550  73.1885730  10.1889390
  54.9086600  73.7588590  10.9014370  55.9419310  72.7090180  10.5520620
  66.7464520  79.1890680  12.0609970  66.0145640  79.6977490  12.4100070
  66.3488860  78.3720660  11.7598750  63.1841910  75.8644880  10.4662460
  63.1877970  75.4234830   9.6167000  64.0793030  76.1862210  10.5734280
  59.0344290  75.7471370   9.4256670  58.6944340  76.2246600  10.1823720
  58.2721610  75.2936490   9.0657770  63.2462060  76.8656960   3.4569220
  63.3674880  76.8243440   4.4055040  62.8610570  77.7281110   3.3015950
  67.2090430  74.6424360  11.4732910  67.2263170  75.0933010  12.3174760
  66.9606010  73.7430000  11.6866350  62.2583560  79.1758100   2.8552520
  61.6900460  78.7276350   2.2288430  62.9672560  79.5350880   2.3217670
  70.6361180  72.0556540  17.3119290  70.9606950  71.3246200  17.8377270
  70.6717690  71.7370180  16.4100280  57.3352740  83.0770120  16.7319250
  56.9507530  82.4363790  17.3302210  57.6464930  83.7806240  17.3013980
  63.4849880  79.9246660  12.2127870  63.8520010  79.4505230  12.9589210
  63.2954940  80.7988230  12.5536210  56.3490370  74.6690350   8.3421340
  56.0637290  74.3046020   9.1799960  56.2869230  73.9370810   7.7284480
  61.2749250  78.9655300  14.5312080  60.9706320  79.8447280  14.7562440
  62.2295710  79.0255090  14.5669520  59.8031040  83.1716290   5.1278930
  59.0293300  82.6313910   4.9677650  60.5325670  82.6522900   4.7896690
  70.5619020  82.1681650  10.9205320  71.2818140  82.6636940  10.5301430
  70.3600840  81.4899540  10.2759190  66.0228960  73.5619610   5.0634710
  65.2093570  73.0632780   4.9880020  65.8290910  74.4017860   4.6471060
  65.9437820  82.2390710  16.8074320  65.8775130  81.3186380  16.5531910
  65.3142960  82.3366150  17.5218960  68.7377350  77.9339260   3.3596870
  69.6256970  78.2456490   3.1848210  68.7082440  77.0611510   2.9677450
  59.8468440  82.8396670   8.7657740  60.3647110  82.0364930   8.7114630
  59.3952460  82.7775810   9.6074570  57.3312980  79.8058040  15.6783440
  56.9727920  80.4711890  16.2656780  57.0367540  78.9741590  16.0496060
  60.5326100  80.2642280  18.5622990  60.2326240  80.4099460  17.6650810
  61.3037340  79.7047570  18.4696380  71.0091620  79.2451100   2.8276730
  70.9255340  79.6765320   1.9773170  71.7285810  79.7049450   3.2603550
  72.0865760  81.7018620  15.9046700  71.3613950  82.2947400  15.7076090
  72.6141220  81.6942160  15.1060070  67.6165350  83.4278790   9.4030550
  67.9689170  82.8306920   8.7431920  66.7327680  83.1023020   9.5738800
  55.8421030  79.8049300   2.3018040  56.7115880  80.0874100   2.5853960
  55.3511350  80.6185170   2.1866850  63.0055840  81.1922510   6.4226320
  63.4618620  82.0027760   6.6486510  62.6544050  80.8745650   7.2544810
  58.9067620  71.5360160   6.8948840  58.7782250  71.5278060   7.8433760
  58.0829640  71.8743250   6.5439850  55.9061550  73.2951280  16.3555540
  55.1920070  73.4948200  16.9608150  56.3256590  72.5190850  16.7270340
  70.0092500  82.9081760   3.7549370  69.7214200  83.3694450   4.5427250
  70.8044670  82.4479530   4.0233590  57.8267540  81.6222770   4.4300100
  57.2195490  82.3621670   4.4395400  58.3016890  81.7122130   3.6038300
  67.4000330  75.7873590  14.1056990  67.7681150  74.9668800  14.4336560
  66.5398530  75.8475480  14.5212640  70.7662360  74.7430530   4.9144550
  70.1375520  74.8476200   4.2002780  70.2714280  74.9627310   5.7038430
  62.7346390  77.0216480   6.3302430  62.0262540  77.4902820   6.7716040
  63.0190870  76.3638490   6.9647620  64.3602320  78.4413180  14.3294960
  64.8587570  78.9159000  14.9946810  64.5025270  77.5176700  14.5364990
  66.7661820  73.7467140   7.7698220  66.6429600  73.7653270   6.8207730
  67.7146380  73.7946080   7.8896620  60.9381410  75.3301560   3.7053140
  61.7871940  75.7671710   3.6393330  60.5712680  75.6421820   4.5325200
  71.5669180  74.6581140  15.1723350  71.0642780  75.3986540  15.5117160
  72.3825840  75.0465140  14.8560140  69.8591190  79.9014320   8.6184710
  68.9181330  79.9164550   8.7932400  70.1735260  79.1150280   9.0645010
  58.5319590  79.0158990   2.8621560  58.6123180  78.0686500   2.9738960
  59.4239340  79.3465870   2.9682220  56.0590390  80.8373910  18.0977730
  56.5629410  80.2581190  18.6693960  55.3197810  81.1214140  18.6354100
  63.1128330  82.2444900  17.6313250  62.3474000  82.8129900  17.5467920
  63.2944290  81.9521110  16.7381480  66.2016740  82.6208130   2.2566010
  65.6526840  83.0677430   2.9008750  66.8236000  82.1157380   2.7803680
  58.0913470  78.9803500  18.9927800  58.1318810  78.6817370  19.9013030
  58.9458970  79.3811110  18.8335320  61.8691860  81.5799050   4.1531310
  62.2908280  81.4138920   4.9962700  61.9942700  80.7699280   3.6586450
  60.0319280  77.5595600  16.9602290  59.5015740  77.0686550  16.3325630
  60.7007350  77.9879800  16.4260220  68.9297340  82.0265060  16.7243480
  69.3438360  82.1810140  17.5733900  67.9948340  82.1520280  16.8869260
  69.4019510  79.3661220  18.7282630  69.9840280  78.6113540  18.6403110
  69.5781280  79.8968660  17.9514110  60.5191580  74.5257970  17.0399580
  60.4248450  73.9078720  16.3150450  59.9388970  75.2524260  16.8129490
  63.2853020  73.0831210  14.0726970  62.8370320  73.1055470  13.2272520
  62.6518220  72.6850230  14.6697270  63.6912570  81.9785540  14.6939410
  64.1100680  82.8218270  14.5215650  62.7721200  82.1157580  14.4646190
  66.0276470  79.7101720  16.0777250  66.1472680  79.1142860  16.8172090
  66.8870470  79.7471410  15.6578550  68.3664370  80.2638910  14.6539760
  67.8399590  80.7881530  14.0504900  68.7095710  80.8966300  15.2849490
  62.7945240  76.2523070  17.3353070  63.3844930  75.9438920  18.0230890
  61.9765480  75.7802820  17.4912970  67.6138670  75.8688880  17.5686090
  66.9254190  75.2070420  17.5036080  68.3344690  75.4227150  18.0134550
  68.2439070  72.4640510   3.6276350  68.5241360  71.6208410   3.9835770
  67.4704800  72.6963620   4.1415100  72.6219790  81.7017240   4.2380260
  73.3838700  82.2713890   4.3439950  72.6374160  81.1344440   5.0088570
  56.1224130  80.2255170   8.4687920  55.4672970  79.9566810   7.8247620
  56.9602080  80.1159650   8.0189900  73.6279760  82.5567340   9.0822190
  73.9988590  81.7734660   8.6758160  74.2681690  83.2456440   8.9039490
  69.0714570  75.0196460   2.6906410  69.4899450  74.8327440   1.8503070
  68.7650630  74.1675510   3.0009340  72.5704300  79.9320600   6.3882210
  72.1947900  79.1648530   5.9563500  71.8407420  80.3143300   6.8757140
  57.1600060  80.6107740  13.0091260  57.5273100  80.5235140  13.8887280
  56.5910880  79.8474290  12.9098120  71.9603920  79.0792120  16.0221730
  71.7290010  78.8504870  15.1219680  72.2208470  79.9991670  15.9766620
  56.7116060  77.5216830  16.9149680  55.8172110  77.4883590  17.2543390
  57.2513610  77.7203620  17.6800930  70.3991990  74.3048550  18.8001430
  71.2762170  74.3131950  19.1835430  70.4112830  73.5679390  18.1893780
  55.3362210  77.4354100   4.4113250  54.4326290  77.6984300   4.2364910
  55.8202830  77.7065270   3.6313210  71.8455260  78.1578090   9.6889450
  72.3692740  77.6640740   9.0579620  72.4314680  78.2928450  10.4337020
  72.0244980  78.2417960  13.2109000  71.0747690  78.2081500  13.3253990
  72.2057990  79.1518070  12.9758770  57.8789420  76.4919640   2.3207630
  58.5881120  76.0702860   1.8354910  57.1629360  76.5594870   1.6890980
  71.3355230  77.4151440   5.6281860  71.8314350  77.1822310   6.4130740
  71.1371300  76.5763280   5.2119500  57.2155770  71.7965160  11.2632900
  57.8631960  71.2462540  10.8228060  57.6357610  72.0508310  12.0848710
  72.7642390  76.0512390   8.1619540  72.6541670  75.8968430   9.1001810
  73.5249980  75.5233330   7.9194950  71.1108110  71.9906520  14.6202540
  71.7480330  72.6040660  14.9861730  71.2583000  72.0267180  13.6751770
  73.7271150  74.6530970   4.0282390  72.9322650  74.5876090   4.5575300
  73.9314430  75.5881610   4.0167740  56.9687770  71.9520830  14.0058220
  56.6202590  72.4084650  14.7716400  56.6375470  71.0577960  14.0880650
  64.4812590  73.1432710  17.5277640  64.4201480  73.7354540  18.2773050
  65.4212970  73.0358670  17.3827900  67.1187150  72.8002770  17.1669930
  67.7327560  73.1182060  16.5051010  67.6636710  72.3151360  17.7865790
  57.6408410  71.4797030  17.2808990  58.1891400  71.2985080  16.5175100
  57.7063720  70.6891140  17.8165300  67.8595190  71.3634910  13.4939220
  66.9855030  71.6970020  13.2912150  67.7505940  70.8908090  14.3191090
  68.7667170  73.5705780  14.8780940  68.4380530  72.7557540  14.4982670
  69.7149470  73.5275590  14.7546630  65.6070010  72.2804750  12.4332130
  64.8241800  72.7550250  12.7128890  65.3132940  71.3759580  12.3245310
  70.1591080  72.9827850  10.4781220  70.5999170  72.9272950   9.6302820
  69.8898670  73.8985860  10.5491400  72.0229650  72.6143090   8.4890040
  71.9618050  71.6704310   8.3421060  72.8021680  72.7223180   9.0343500
  56.9510420  72.5852230   4.9545850  57.7089780  72.6981110   4.3809880
  56.4887590  73.4221430   4.9089280  63.4924230  74.6991500   7.9448160
  62.6798740  74.3248390   7.6044040  63.9965870  73.9436580   8.2469350
  67.9949210  71.3633950   9.1831230  68.5978580  71.9354160   9.6579750
  67.2542200  71.9273390   8.9605130  71.1383810  71.7655510   4.4571510
  71.3334440  72.6638960   4.7238940  70.3513680  71.5342590   4.9504460
  59.3235570  73.1116280   3.4947820  59.8528330  72.3246080   3.3655770
  59.9563890  73.7907470   3.7283350  61.5173410  72.8491420   6.5493210
  60.8876150  72.1478730   6.7163340  60.9778550  73.6095550   6.3326370
  61.6428970  72.1275400  18.9845700  61.3613240  72.6309000  18.2206520
  62.0248670  71.3297150  18.6187830  68.2444430  71.5428980  19.5626170
  68.1309880  71.8623590  20.4577690  69.0614170  71.9441490  19.2663450
  67.1502580  60.7877960  83.7978360  67.0696630  59.8732570  83.5270070
  66.7367000  61.2845030  83.0918070  65.2820620  62.5656980  85.6787630
  64.5062720  62.0857420  85.9686200  65.9333550  61.8862630  85.5043790
  59.2986450  62.8776790  86.5563390  58.4671330  62.6225500  86.9559900
  59.9067430  62.9487560  87.2921310  69.3028050  66.9717170  84.4586760
  68.8409580  66.2004410  84.7873930  70.1153600  66.9983240  84.9639210
  59.2787710  66.9116880  86.7521410  59.5815750  66.0214620  86.5731630
  60.0231300  67.4687100  86.5243660  57.7078400  57.8378680  80.3405780
  56.8195100  58.1794650  80.2385660  57.9919590  57.6379000  79.4486610
  55.6711410  60.4384330  86.2245480  56.2427520  59.6706530  86.2249120
  55.6712950  60.7373090  85.3152090  65.5291360  69.2575180  84.0790750
  64.9102800  69.7132680  83.5085190  66.3843140  69.4126640  83.6780450
  64.7229610  65.2414170  85.6857790  64.6537890  64.3004110  85.5246920
  65.4849470  65.3315580  86.2580360  56.9136280  55.8468690  88.0114410
  56.7339120  54.9494440  88.2917170  56.5116360  56.3940560  88.6861360
  65.7534780  58.0484550  85.9126720  66.1299600  57.1756430  85.8000390
  65.6554290  58.3843250  85.0217160  59.8839790  56.4210180  81.3744160
  59.9906540  57.3213910  81.6812920  58.9732150  56.3728150  81.0838810
  69.5358900  55.5434990  82.8455060  70.3568520  55.0531560  82.8880540
  69.5692980  56.1332650  83.5986900  57.5322950  58.3429190  86.6196750
  58.2133060  58.6067560  87.2384150  57.2171000  57.5030060  86.9534760
  61.7247520  59.3896550  85.7069340  62.2325740  59.8877520  86.3474360
  62.2560760  58.6131750  85.5308700  73.8258450  57.5601740  89.4098690
  73.1210620  57.9483450  88.8913800  74.0916370  58.2552030  90.0119620
  60.0083620  54.0295110  89.9732760  60.0102060  54.5467500  89.1678660
  59.1787930  53.5525290  89.9502690  66.3954710  64.1414420  81.4722660
  65.7771980  64.6063870  80.9085380  66.9077960  64.8341900  81.8892170
  61.2586470  63.6690290  88.1506260  60.9255850  64.2959210  88.7927330
  61.4353150  64.1952170  87.3707930  69.7720380  57.4835370  85.6182600
  69.0675950  57.7720260  86.1985710  70.1332540  58.2935480  85.2582160
  59.6898950  55.7405070  87.9803210  60.0315760  56.5847120  87.6857080
  58.7514760  55.8888810  88.0968550  60.4705570  65.6371090  89.9655440
  61.0879570  66.3122170  89.6839890  59.6098690  66.0459070  89.8742940
  55.7637910  64.8270950  78.8462290  55.3865890  65.3158050  78.1147190
  56.0210980  65.4996230  79.4768820  71.3883160  67.1010500  87.8810080
  70.7046680  67.7709610  87.8726750  71.9277450  67.2991150  87.1154940
  72.8407300  56.9290160  86.0091810  71.8932210  56.9629140  86.1407240
  73.1657290  57.7429110  86.3941170  63.3726840  53.2287340  84.3047800
  63.6801820  52.6734230  83.5883300  62.4427540  53.3631800  84.1220790
  68.9241900  68.9454630  86.5955260  68.9369060  68.5416920  85.7277520
  68.3717120  69.7201920  86.4916690  70.2187320  65.6670850  81.6845430
  70.1083650  64.7245180  81.8094850  70.2155570  66.0286490  82.5708190
  68.3227340  63.8484470  87.9237870  68.7396130  63.6344580  87.0891330
  69.0467160  64.1057260  88.4946490  65.7607600  61.2936170  81.0407920
  64.8336880  61.2273550  81.2696390  65.9132420  62.2316300  80.9263160
  65.7476680  57.5653170  78.0375080  64.8080350  57.7267130  78.1227540
  66.0659940  58.2838850  77.4911070  72.2689440  62.2471690  88.0154110
  71.4408070  62.3164780  87.5404240  72.8639920  62.8326000  87.5469940
  69.7904890  62.8556470  81.5443170  69.1717310  62.5176020  80.8969470
  69.7729340  62.2116230  82.2522360  69.2331450  59.0341010  88.9608980
  68.8202630  59.8594720  89.2148970  68.5007400  58.4486050  88.7685340
  61.3664240  61.8200910  83.8227650  60.9621240  61.1078160  83.3273550
  61.4527360  61.4754150  84.7115690  61.8345940  65.5068470  85.9866860
  61.5374230  64.9013940  85.3074640  62.7845760  65.5445780  85.8756220
  60.0792860  58.5944120  87.6026690  60.6307450  58.7039460  86.8279940
  60.5936370  58.9681720  88.3181920  69.9231550  69.0800340  89.6489960
  69.4462110  69.8872530  89.4562570  69.2393340  68.4278670  89.8016170
  60.9264370  65.2450160  92.6374660  60.0292900  65.4690130  92.8848060
  60.9517240  65.3685100  91.6886060  67.9669590  62.0943280  78.5515920
  68.4062870  61.2565710  78.4053740  68.6798010  62.7272680  78.6380060
  59.7535590  62.1163480  91.2132030  59.6143360  62.9886280  91.5819430
  58.8716950  61.7736290  91.0679970  66.0764970  67.0339350  82.5197160
  66.5160880  67.7763680  82.1052550  66.0151860  67.2765920  83.4436120
  61.5515940  68.0585180  93.4217180  61.5231370  68.4628130  92.5545610
  61.3880910  67.1295540  93.2588780  71.5486730  53.3486090  76.8656960
  71.2359390  53.4412920  77.7656030  72.3099200  53.9267120  76.8154390
  58.0668870  60.7145890  81.3234300  57.9466470  61.4407980  80.7115570
  57.7569760  59.9448800  80.8462210  55.7054240  63.8861030  87.1302940
  55.7834660  64.0209800  86.1858660  56.3195920  63.1776920  87.3231060
  56.9501870  65.5861220  83.5409120  56.5429950  65.7275810  82.6862720
  57.8414880  65.3021380  83.3380330  72.9064010  66.0325130  91.8781360
  73.0327070  65.7937010  90.9598540  72.9485390  65.2009670  92.3503440
  66.7680750  69.7353130  90.4476170  67.2825420  69.6461140  91.2498600
  65.9249830  70.0812830  90.7404080  68.7435150  70.0208470  79.8760170
  68.5836290  69.7311410  80.7742000  68.5781860  69.2448600  79.3405400
  61.2223530  69.8007000  81.6531790  61.0466010  68.8842540  81.4399590
  60.3679270  70.1594290  81.8929590  68.4461280  67.5296030  78.4358170
  67.7526440  67.5273320  77.7760450  69.1884140  67.1055350  78.0052340
  68.0111210  69.1558740  82.5106660  68.4668160  68.3748120  82.8245280
  68.3503730  69.8665560  83.0547840  72.7588020  58.0857590  92.8431100
  72.1432290  58.5937260  92.3146560  72.4384440  57.1855920  92.7857040
  55.7613760  64.9275200  89.6697400  55.9244800  64.4580560  88.8516770
  56.2266210  64.4198760  90.3346240  60.5332530  54.0580960  84.7057970
  60.0900680  54.8390500  84.3742490  61.0917520  54.3810850  85.4128910
  64.8202340  56.9249480  90.3093290  64.3581710  57.1332500  91.1213230
  64.4180450  56.1108830  90.0063960  69.8206850  58.1458430  91.4389950
  68.9700440  57.8464180  91.7599020  69.6608640  58.3900440  90.5273770
  66.9156560  59.6460180  93.5388740  67.2409970  58.8123930  93.1990970
  67.7036890  60.1688700  93.6867070  63.6491350  53.6791660  79.5863800
  63.0245530  53.6751530  80.3117110  63.5621470  52.8122620  79.1899770
  62.5708430  54.6028290  86.5647570  62.8680760  55.5091120  86.4839590
  63.1193990  54.1147070  85.9507140  60.3246750  59.1814530  82.4339220
  60.0987670  58.9651700  83.3385840  59.5439280  59.6142990  82.0885190
  67.5544510  59.1877900  81.0329870  66.9553400  59.9113700  80.8493490
  68.1024120  59.1254680  80.2506320  62.7645960  60.0800110  93.0999490
  62.6689560  59.1394840  92.9499890  63.6077940  60.3015180  92.7047560
  66.1609380  57.8241440  83.0633150  66.5538950  58.1413640  82.2501840
  66.5226230  56.9453320  83.1777670  57.8956500  56.4913780  91.2533270
  57.5019890  57.3388990  91.4606050  57.2074900  55.8540150  91.4441910
  55.1973550  54.4142240  85.2863350  54.9086600  54.9845100  85.9988330
  55.9419310  53.9346690  85.6494580  55.3843780  58.3562360  76.4966070
  55.3018450  59.2993120  76.6381060  55.0326840  58.2137270  75.6178420
  66.7464520  60.4147190  87.1583930  66.0145640  60.9234000  87.5074030
  66.3488860  59.5977170  86.8572710  63.1841910  57.0901390  85.5636420
  63.1877970  56.6491340  84.7140960  64.0793030  57.4118720  85.6708240
  59.0344290  56.9727880  84.5230630  58.6944340  57.4503110  85.2797680
  58.2721610  56.5193000  84.1631730  63.2462060  58.0913470  78.5543180
  63.3674880  58.0499950  79.5029000  62.8610570  58.9537620  78.3989910
  67.2090430  55.8680870  86.5706870  67.2263170  56.3189520  87.4148720
  66.9606010  54.9686510  86.7840310  62.2583560  60.4014610  77.9526480
  61.6900460  59.9532860  77.3262390  62.9672560  60.7607390  77.4191630
  70.6361180  53.2813050  92.4093250  70.9606950  52.5502710  92.9351230
  70.6717690  52.9626690  91.5074240  57.3352740  64.3026630  91.8293210
  56.9507530  63.6620300  92.4276170  57.6464930  65.0062750  92.3987940
  63.4849880  61.1503170  87.3101830  63.8520010  60.6761740  88.0563170
  63.2954940  62.0244740  87.6510170  56.3490370  55.8946860  83.4395300
  56.0637290  55.5302530  84.2773920  56.2869230  55.1627320  82.8258440
  61.2749250  60.1911810  89.6286040  60.9706320  61.0703790  89.8536400
  62.2295710  60.2511600  89.6643480  59.8031040  64.3972800  80.2252890
  59.0293300  63.8570420  80.0651610  60.5325670  63.8779410  79.8870650
  70.5619020  63.3938160  86.0179280  71.2818140  63.8893450  85.6275390
  70.3600840  62.7156050  85.3733150  66.0228960  54.7876120  80.1608670
  65.2093570  54.2889290  80.0853980  65.8290910  55.6274370  79.7445020
  65.9437820  63.4647220  91.9048280  65.8775130  62.5442890  91.6505870
  65.3142960  63.5622660  92.6192920  68.7377350  59.1595770  78.4570830
  69.6256970  59.4713000  78.2822170  68.7082440  58.2868020  78.0651410
  59.8468440  64.0653180  83.8631700  60.3647110  63.2621440  83.8088590
  59.3952460  64.0032320  84.7048530  64.7337940  65.3319460  79.1359000
  65.0753640  66.0761690  78.6402320  63.9050650  65.6450580  79.4983830
  57.3312980  61.0314550  90.7757400  56.9727920  61.6968400  91.3630740
  57.0367540  60.1998100  91.1470020  60.5326100  61.4898790  93.6596950
  60.2326240  61.6355970  92.7624770  61.3037340  60.9304080  93.5670340
  65.8754550  66.2867790  91.6552080  65.8899090  65.3548750  91.4370990
  65.1679650  66.3727550  92.2941850  71.0091620  60.4707610  77.9250690
  70.9255340  60.9021830  77.0747130  71.7285810  60.9305960  78.3577510
  72.0865760  62.9275130  91.0020660  71.3613950  63.5203910  90.8050050
  72.6141220  62.9198670  90.2034030  72.0378870  67.3249870  80.6532820
  71.3955030  66.6705490  80.9276540  71.6509530  67.7304960  79.8773490
  67.6165350  64.6535300  84.5004510  67.9689170  64.0563430  83.8405880
  66.7327680  64.3279530  84.6712760  63.7028630  65.4132990  81.9074920
  64.3899760  65.9602200  82.2882510  62.9161050  65.9573720  81.9424530
  55.8421030  61.0305810  77.3992000  56.7115880  61.3130610  77.6827920
  55.3511350  61.8441680  77.2840810  63.0055840  62.4179020  81.5200280
  63.4618620  63.2284270  81.7460470  62.6544050  62.1002160  82.3518770
  65.3088450  67.9285360  88.7492580  65.9530670  68.1344740  89.4266000
  65.6717890  67.1673760  88.2963430  58.9067620  52.7616670  81.9922800
  58.7782250  52.7534570  82.9407720  58.0829640  53.0999760  81.6413810
  66.5820530  65.9317710  87.4670030  67.2242760  65.2310870  87.5802200
  67.1069880  66.7116150  87.2866920  70.4276250  66.2166330  77.1909170
  70.2013830  65.4996770  77.7833810  70.0372450  65.9678770  76.3530920
  68.3558150  66.7312610  90.6706090  68.6914390  67.3179300  91.3484010
  67.4358490  66.6005320  90.9003880  56.2092280  70.2433190  77.9653630
  56.5689920  70.8422530  77.3110900  56.0684620  70.7893080  78.7388660
  55.9061550  54.5207790  91.4529500  55.1920070  54.7204710  92.0582110
  56.3256590  53.7447360  91.8244300  70.0092500  64.1338270  78.8523330
  69.7214200  64.5950960  79.6401210  70.8044670  63.6736040  79.1207550
  56.1934140  68.5088050  92.4396030  56.3025260  67.5682790  92.2991420
  55.5414700  68.7742800  91.7909760  62.2260900  67.6264390  78.7827300
  62.2171000  68.3594080  78.1671810  61.3059260  67.3795970  78.8754260
  57.8267540  62.8479280  79.5274060  57.2195490  63.5878180  79.5369360
  58.3016890  62.9378640  78.7012260  67.4000330  57.0130100  89.2030950
  67.7681150  56.1925310  89.5310520  66.5398530  57.0731990  89.6186600
  70.7662360  55.9687040  80.0118510  70.1375520  56.0732710  79.2976740
  70.2714280  56.1883820  80.8012390  65.2120500  67.6892630  77.4452490
  65.3132480  67.4856620  76.5154470  64.3122240  67.4350910  77.6500270
  62.7346390  58.2472990  81.4276390  62.0262540  58.7159330  81.8690000
  63.0190870  57.5895000  82.0621580  64.3602320  59.6669690  89.4268920
  64.8587570  60.1415510  90.0920770  64.5025270  58.7433210  89.6338950
  66.7661820  54.9723650  82.8672180  66.6429600  54.9909780  81.9181690
  67.7146380  55.0202590  82.9870580  63.8538610  70.2078950  82.1400160
  64.1080110  70.1700340  81.2179530  62.9051090  70.0812280  82.1328410
  60.9381410  56.5558070  78.8027100  61.7871940  56.9928220  78.7367290
  60.5712680  56.8678330  79.6299160  71.5669180  55.8837650  90.2697310
  71.0642780  56.6243050  90.6091120  72.3825840  56.2721650  89.9534100
  69.8591190  61.1270830  83.7158670  68.9181330  61.1421060  83.8906360
  70.1735260  60.3406790  84.1618970  59.8372830  62.8090430  77.2762630
  60.6036100  62.6971790  77.8388060  59.9147520  62.1128400  76.6239400
  58.5319590  60.2415500  77.9595520  58.6123180  59.2943010  78.0712920
  59.4239340  60.5722380  78.0656180  71.8616770  68.2979680  85.3912930
  71.9864190  69.1210850  85.8636740  72.7282330  68.0870410  85.0437080
  59.3334300  70.3910890  85.0630060  60.0696780  69.8426350  85.3338630
  59.7175220  71.2566900  84.9236050  56.2179780  66.4584460  80.9371570
  55.2919560  66.7005600  80.9276980  56.6836210  67.2858720  80.8156320
  62.4436610  69.5641200  76.8855630  63.2365220  69.8530030  76.4337420
  61.9240960  69.1333370  76.2068110  68.6057580  69.4117120  92.8100460
  69.5579330  69.3275140  92.7600700  68.4585800  70.0758830  93.4834250
  71.4966780  68.7911330  78.3092370  71.2108290  68.3776470  77.4946550
  71.2986330  69.7199040  78.1892890  56.0590390  62.0630420  93.1951690
  56.5629410  61.4837700  93.7667920  55.3197810  62.3470650  93.7328060
  62.9614010  64.7844610  76.7497980  62.8564650  64.1696960  77.4759360
  62.7938230  64.2610500  75.9660990  63.1128330  63.4701410  92.7287210
  62.3474000  64.0386410  92.6441880  63.2944290  63.1777620  91.8355440
  66.2016740  63.8464640  77.3539970  65.6526840  64.2933940  77.9982710
  66.8236000  63.3413890  77.8777640  70.2551680  65.2006740  93.2862230
  70.9961150  65.5382500  92.7829690  69.4924360  65.3698800  92.7332000
  61.8691860  62.8055560  79.2505270  62.2908280  62.6395430  80.0936660
  61.9942700  61.9955790  78.7560410  60.0319280  58.7852110  92.0576250
  59.5015740  58.2943060  91.4299590  60.7007350  59.2136310  91.5234180
  64.3819500  61.8293170  76.4982370  64.9025160  61.1142190  76.1323520
  65.0287900  62.4679040  76.7982880  68.9297340  63.2521570  91.8217440
  69.3438360  63.4066650  92.6707860  67.9948340  63.3776790  91.9843220
  69.4019510  60.5917730  93.8256590  69.9840280  59.8370050  93.7377070
  69.5781280  61.1225170  93.0488070  60.5191580  55.7514480  92.1373540
  60.4248450  55.1335230  91.4124410  59.9388970  56.4780770  91.9103450
  63.2853020  54.3087720  89.1700930  62.8370320  54.3311980  88.3246480
  62.6518220  53.9106740  89.7671230  63.6912570  63.2042050  89.7913370
  64.1100680  64.0474780  89.6189610  62.7721200  63.3414090  89.5620150
  66.0276470  60.9358230  91.1751210  66.1472680  60.3399370  91.9146050
  66.8870470  60.9727920  90.7552510  68.3664370  61.4895420  89.7513720
  67.8399590  62.0138040  89.1478860  68.7095710  62.1222810  90.3823450
  60.7650760  58.8788790  76.1963430  60.5639820  58.0156150  76.5576770
  60.5942810  58.7922150  75.2585030  61.5419990  69.5095060  90.9071100
  61.0041080  70.2341120  90.5879800  61.7953950  69.0325400  90.1168440
  62.7945240  57.4779580  92.4327030  63.3844930  57.1695430  93.1204850
  61.9765480  57.0059330  92.5886930  67.6138670  57.0945390  92.6660050
  66.9254190  56.4326930  92.6010040  68.3344690  56.6483660  93.1108510
  68.2439070  53.6897020  78.7250310  68.5241360  52.8464920  79.0809730
  67.4704800  53.9220130  79.2389060  59.5633560  55.9789410  76.1841310
  59.8659460  55.9856840  75.2760460  60.3028150  55.6287270  76.6808970
  64.3982200  70.7446270  91.1657750  64.3240900  71.6481410  91.4730120
  63.4961040  70.4258170  91.1379820  62.7818490  54.9224030  77.1697510
  62.4340490  54.2448020  76.5899960  62.9831260  54.4613540  77.9840900
  64.9467530  69.9104780  78.7884110  65.8418320  70.2489750  78.8102870
  64.9785160  69.1884190  78.1608390  58.5863690  65.2831830  77.0171110
  59.0238560  65.8261500  77.6728690  59.0711420  64.4578780  77.0267450
  55.8009490  68.0720860  84.4691370  56.1312500  67.2041920  84.2370010
  56.2300490  68.2779380  85.2996330  60.3971410  66.4029870  82.1293340
  60.0966950  66.2794840  83.0297250  60.2908900  65.5438460  81.7209070
  56.2899700  68.9391450  87.2073000  55.8530690  69.1192250  88.0397150
  56.8577380  69.6966070  87.0654720  71.9261880  68.4408450  91.4950310
  71.3263870  68.5001010  90.7514230  72.0555780  67.5013430  91.6247160
  73.1663330  66.1826270  76.8320020  72.3356290  66.2502920  77.3027250
  73.3435160  67.0730390  76.5286880  72.6219790  62.9273750  79.3354220
  73.3838700  63.4970400  79.4413910  72.6374160  62.3600950  80.1062530
  56.1224130  61.4511680  83.5661880  55.4672970  61.1823320  82.9221580
  56.9602080  61.3416160  83.1163860  73.6279760  63.7823850  84.1796150
  73.9988590  62.9991170  83.7732120  74.2681690  64.4712950  84.0013450
  70.6113520  65.1660430  89.5926470  69.7973360  65.5957590  89.8552260
  71.0187720  65.7778840  88.9795520  72.6738960  63.2208120  76.4926740
  72.9487800  64.1287000  76.3645960  72.4849700  63.1570650  77.4288730
  69.0714570  56.2452970  77.7880370  69.4899450  56.0583950  76.9477030
  68.7650630  55.3932020  78.0983300  72.5704300  61.1577110  81.4856170
  72.1947900  60.3905040  81.0537460  71.8407420  61.5399810  81.9731100
  57.1600060  61.8364250  88.1065220  57.5273100  61.7491650  88.9861240
  56.5910880  61.0730800  88.0072080  71.9603920  60.3048630  91.1195690
  71.7290010  60.0761380  90.2193640  72.2208470  61.2248180  91.0740580
  56.7116060  58.7473340  92.0123640  55.8172110  58.7140100  92.3517350
  57.2513610  58.9460130  92.7774890  55.3362210  58.6610610  79.5087210
  54.4326290  58.9240810  79.3338870  55.8202830  58.9321780  78.7287170
  71.8455260  59.3834600  84.7863410  72.3692740  58.8897250  84.1553580
  72.4314680  59.5184960  85.5310980  72.0244980  59.4674470  88.3082960
  71.0747690  59.4338010  88.4227950  72.2057990  60.3774580  88.0732730
  57.8789420  57.7176150  77.4181590  58.5881120  57.2959370  76.9328870
  57.1629360  57.7851380  76.7864940  57.5263580  53.7715480  76.4584240
  58.2491710  54.3124420  76.7765460  57.7988100  53.4978900  75.5825780
  71.3355230  58.6407950  80.7255820  71.8314350  58.4078820  81.5104700
  71.1371300  57.8019790  80.3093460  57.2155770  53.0221670  86.3606860
  57.8631960  52.4719050  85.9202020  57.6357610  53.2764820  87.1822670
  72.7642390  57.2768900  83.2593500  72.6541670  57.1224940  84.1975770
  73.5249980  56.7489840  83.0168910  71.1108110  53.2163030  89.7176500
  71.7480330  53.8297170  90.0835690  71.2583000  53.2523690  88.7725730
  73.6532660  55.1076820  76.4999640  74.5781970  54.9758000  76.2917930
  73.6308450  55.1869640  77.4536090  73.7271150  55.8787480  79.1256350
  72.9322650  55.8132600  79.6549260  73.9314430  56.8138120  79.1141700
  70.6689570  69.9179030  83.1194740  71.2648640  69.5963600  82.4429160
  70.9267720  69.4450850  83.9108010  56.9687770  53.1777340  89.1032180
  56.6202590  53.6341160  89.8690360  56.6375470  52.2834470  89.1854610
  62.2758170  67.9056530  88.8695090  62.0349530  68.1731090  87.9825610
  63.2160810  68.0762260  88.9245950  64.4812590  54.3689220  92.6251600
  64.4201480  54.9611050  93.3747010  65.4212970  54.2615180  92.4801860
  67.1187150  54.0259280  92.2643890  67.7327560  54.3438570  91.6024970
  67.6636710  53.5407870  92.8839750  73.5362330  69.9250910  89.6705730
  73.0420610  70.3219780  88.9532860  72.9275620  69.3000120  90.0643010
  57.6408410  52.7053540  92.3782950  58.1891400  52.5241590  91.6149060
  57.7063720  51.9147650  92.9139260  58.4140170  69.2959190  90.3883150
  57.8200490  69.1643890  91.1273190  58.4064010  68.4597330  89.9225250
  67.8595190  52.5891420  88.5913180  66.9855030  52.9226530  88.3886110
  67.7505940  52.1164600  89.4165050  68.7667170  54.7962290  89.9754900
  68.4380530  53.9814050  89.5956630  69.7149470  54.7532100  89.8520590
  71.2201780  70.5674330  86.9492470  70.7604750  71.3190140  86.5750490
  70.5914240  69.8480800  86.8907270  58.0452400  66.6617570  89.3391190
  57.3186460  66.0422860  89.2717140  58.1061550  67.0558180  88.4689270
  61.6497500  68.8762570  86.1240600  62.1662520  68.2649930  85.5988860
  62.2994880  69.3791350  86.6151610  64.3893000  69.7671060  86.9509580
  64.6770810  69.5125360  86.0742590  64.9016220  69.2148420  87.5415150
  65.6070010  53.5061260  87.5306090  64.8241800  53.9806760  87.8102850
  65.3132940  52.6016090  87.4219270  70.1591080  54.2084360  85.5755180
  70.5999170  54.1529460  84.7276780  69.8898670  55.1242370  85.6465360
  72.0229650  53.8399600  83.5864000  71.9618050  52.8960820  83.4395020
  72.8021680  53.9479690  84.1317460  56.3282400  69.9791960  82.5487950
  56.1604440  69.3462640  83.2469840  55.4616910  70.1851360  82.1982140
  56.9510420  53.8108740  80.0519810  57.7089780  53.9237620  79.4783840
  56.4887590  54.6477940  80.0063240  63.4924230  55.9248010  83.0422120
  62.6798740  55.5504900  82.7018000  63.9965870  55.1693090  83.3443310
  67.9949210  52.5890460  84.2805190  68.5978580  53.1610670  84.7553710
  67.2542200  53.1529900  84.0579090  71.1383810  52.9912020  79.5545470
  71.3334440  53.8895470  79.8212900  70.3513680  52.7599100  80.0478420
  57.9345100  68.6725190  79.9938090  57.4092720  69.0533220  79.2900050
  57.8589680  69.2975960  80.7147800  59.3235570  54.3372790  78.5921780
  59.8528330  53.5502590  78.4629730  59.9563890  55.0163980  78.8257310
  61.5173410  54.0747930  81.6467170  60.8876150  53.3735240  81.8137300
  60.9778550  54.8352060  81.4300330  72.6910420  70.2312730  81.3152030
  72.8662610  69.5450470  80.6712950  71.9931990  70.7559780  80.9228700
  60.5338070  70.6207570  78.8687340  61.2656890  70.3366850  78.3211230
  60.7931740  70.3820850  79.7586720  59.6952860  66.7372300  78.8733670
  59.0661740  67.2057400  79.4219500  59.8100690  65.8921520  79.3079860
  67.1502580  60.7877960  65.0234870  67.0696630  59.8732570  64.7526580
  66.7367000  61.2845030  64.3174580  65.2820620  62.5656980  66.9044140
  64.5062720  62.0857420  67.1942710  65.9333550  61.8862630  66.7300300
  59.2986450  62.8776790  67.7819900  58.4671330  62.6225500  68.1816410
  59.9067430  62.9487560  68.5177820  69.3028050  66.9717170  65.6843270
  68.8409580  66.2004410  66.0130440  70.1153600  66.9983240  66.1895720
  59.2787710  66.9116880  67.9777920  59.5815750  66.0214620  67.7988140
  60.0231300  67.4687100  67.7500170  55.6711410  60.4384330  67.4501990
  56.2427520  59.6706530  67.4505630  55.6712950  60.7373090  66.5408600
  65.5291360  69.2575180  65.3047260  64.9102800  69.7132680  64.7341700
  66.3843140  69.4126640  64.9036960  64.7229610  65.2414170  66.9114300
  64.6537890  64.3004110  66.7503430  65.4849470  65.3315580  67.4836870
  65.7534780  58.0484550  67.1383230  66.1299600  57.1756430  67.0256900
  65.6554290  58.3843250  66.2473670  69.5358900  55.5434990  64.0711570
  70.3568520  55.0531560  64.1137050  69.5692980  56.1332650  64.8243410
  61.7247520  59.3896550  66.9325850  62.2325740  59.8877520  67.5730870
  62.2560760  58.6131750  66.7565210  73.8258450  57.5601740  70.6355200
  73.1210620  57.9483450  70.1170310  74.0916370  58.2552030  71.2376130
  60.0083620  54.0295110  71.1989270  60.0102060  54.5467500  70.3935170
  59.1787930  53.5525290  71.1759200  66.3954710  64.1414420  62.6979170
  65.7771980  64.6063870  62.1341890  66.9077960  64.8341900  63.1148680
  61.2586470  63.6690290  69.3762770  60.9255850  64.2959210  70.0183840
  61.4353150  64.1952170  68.5964440  69.7720380  57.4835370  66.8439110
  69.0675950  57.7720260  67.4242220  70.1332540  58.2935480  66.4838670
  59.6898950  55.7405070  69.2059720  60.0315760  56.5847120  68.9113590
  58.7514760  55.8888810  69.3225060  60.4705570  65.6371090  71.1911950
  61.0879570  66.3122170  70.9096400  59.6098690  66.0459070  71.0999450
  71.3883160  67.1010500  69.1066590  70.7046680  67.7709610  69.0983260
  71.9277450  67.2991150  68.3411450  72.8407300  56.9290160  67.2348320
  71.8932210  56.9629140  67.3663750  73.1657290  57.7429110  67.6197680
  63.3726840  53.2287340  65.5304310  63.6801820  52.6734230  64.8139810
  62.4427540  53.3631800  65.3477300  68.9241900  68.9454630  67.8211770
  68.9369060  68.5416920  66.9534030  68.3717120  69.7201920  67.7173200
  70.2187320  65.6670850  62.9101940  70.1083650  64.7245180  63.0351360
  70.2155570  66.0286490  63.7964700  68.3227340  63.8484470  69.1494380
  68.7396130  63.6344580  68.3147840  69.0467160  64.1057260  69.7203000
  65.7607600  61.2936170  62.2664430  64.8336880  61.2273550  62.4952900
  65.9132420  62.2316300  62.1519670  72.2689440  62.2471690  69.2410620
  71.4408070  62.3164780  68.7660750  72.8639920  62.8326000  68.7726450
  69.7904890  62.8556470  62.7699680  69.1717310  62.5176020  62.1225980
  69.7729340  62.2116230  63.4778870  69.2331450  59.0341010  70.1865490
  68.8202630  59.8594720  70.4405480  68.5007400  58.4486050  69.9941850
  61.3664240  61.8200910  65.0484160  60.9621240  61.1078160  64.5530060
  61.4527360  61.4754150  65.9372200  61.8345940  65.5068470  67.2123370
  61.5374230  64.9013940  66.5331150  62.7845760  65.5445780  67.1012730
  60.0792860  58.5944120  68.8283200  60.6307450  58.7039460  68.0536450
  60.5936370  58.9681720  69.5438430  69.9231550  69.0800340  70.8746470
  69.4462110  69.8872530  70.6819080  69.2393340  68.4278670  71.0272680
  60.9264370  65.2450160  73.8631170  60.0292900  65.4690130  74.1104570
  60.9517240  65.3685100  72.9142570  67.9669590  62.0943280  59.7772430
  68.4062870  61.2565710  59.6310250  68.6798010  62.7272680  59.8636570
  59.7535590  62.1163480  72.4388540  59.6143360  62.9886280  72.8075940
  58.8716950  61.7736290  72.2936480  66.0764970  67.0339350  63.7453670
  66.5160880  67.7763680  63.3309060  66.0151860  67.2765920  64.6692630
  61.5515940  68.0585180  74.6473690  61.5231370  68.4628130  73.7802120
  61.3880910  67.1295540  74.4845290  71.5486730  53.3486090  58.0913470
  71.2359390  53.4412920  58.9912540  72.3099200  53.9267120  58.0410900
  73.5030760  68.8412280  75.9437860  73.9790480  69.3195170  76.6226940
  74.1237920  68.7729770  75.2183360  55.7054240  63.8861030  68.3559450
  55.7834660  64.0209800  67.4115170  56.3195920  63.1776920  68.5487570
  56.9501870  65.5861220  64.7665630  56.5429950  65.7275810  63.9119230
  57.8414880  65.3021380  64.5636840  72.9064010  66.0325130  73.1037870
  73.0327070  65.7937010  72.1855050  72.9485390  65.2009670  73.5759950
  66.7680750  69.7353130  71.6732680  67.2825420  69.6461140  72.4755110
  65.9249830  70.0812830  71.9660590  68.7435150  70.0208470  61.1016680
  68.5836290  69.7311410  61.9998510  68.5781860  69.2448600  60.5661910
  61.2223530  69.8007000  62.8788300  61.0466010  68.8842540  62.6656100
  60.3679270  70.1594290  63.1186100  68.4461280  67.5296030  59.6614680
  67.7526440  67.5273320  59.0016960  69.1884140  67.1055350  59.2308850
  68.0111210  69.1558740  63.7363170  68.4668160  68.3748120  64.0501790
  68.3503730  69.8665560  64.2804350  72.7588020  58.0857590  74.0687610
  72.1432290  58.5937260  73.5403070  72.4384440  57.1855920  74.0113550
  55.7613760  64.9275200  70.8953910  55.9244800  64.4580560  70.0773280
  56.2266210  64.4198760  71.5602750  64.8202340  56.9249480  71.5349800
  64.3581710  57.1332500  72.3469740  64.4180450  56.1108830  71.2320470
  69.8206850  58.1458430  72.6646460  68.9700440  57.8464180  72.9855530
  69.6608640  58.3900440  71.7530280  66.9156560  59.6460180  74.7645250
  67.2409970  58.8123930  74.4247480  67.7036890  60.1688700  74.9123580
  62.5708430  54.6028290  67.7904080  62.8680760  55.5091120  67.7096100
  63.1193990  54.1147070  67.1763650  67.5544510  59.1877900  62.2586380
  66.9553400  59.9113700  62.0750000  68.1024120  59.1254680  61.4762830
  62.7645960  60.0800110  74.3256000  62.6689560  59.1394840  74.1756400
  63.6077940  60.3015180  73.9304070  66.1609380  57.8241440  64.2889660
  66.5538950  58.1413640  63.4758350  66.5226230  56.9453320  64.4034180
  57.8956500  56.4913780  72.4789780  57.5019890  57.3388990  72.6862560
  57.2074900  55.8540150  72.6698420  64.4701550  56.5748750  75.5486520
  63.7799870  56.3820950  76.1832610  65.2133850  56.8583390  76.0810820
  66.7464520  60.4147190  68.3840440  66.0145640  60.9234000  68.7330540
  66.3488860  59.5977170  68.0829220  63.1841910  57.0901390  66.7892930
  63.1877970  56.6491340  65.9397470  64.0793030  57.4118720  66.8964750
  67.2090430  55.8680870  67.7963380  67.2263170  56.3189520  68.6405230
  66.9606010  54.9686510  68.0096820  70.6361180  53.2813050  73.6349760
  70.9606950  52.5502710  74.1607740  70.6717690  52.9626690  72.7330750
  57.3352740  64.3026630  73.0549720  56.9507530  63.6620300  73.6532680
  57.6464930  65.0062750  73.6244450  63.4849880  61.1503170  68.5358340
  63.8520010  60.6761740  69.2819680  63.2954940  62.0244740  68.8766680
  61.2749250  60.1911810  70.8542550  60.9706320  61.0703790  71.0792910
  62.2295710  60.2511600  70.8899990  59.8031040  64.3972800  61.4509400
  59.0293300  63.8570420  61.2908120  60.5325670  63.8779410  61.1127160
  70.5619020  63.3938160  67.2435790  71.2818140  63.8893450  66.8531900
  70.3600840  62.7156050  66.5989660  65.9437820  63.4647220  73.1304790
  65.8775130  62.5442890  72.8762380  65.3142960  63.5622660  73.8449430
  59.8468440  64.0653180  65.0888210  60.3647110  63.2621440  65.0345100
  59.3952460  64.0032320  65.9305040  64.7337940  65.3319460  60.3615510
  65.0753640  66.0761690  59.8658830  63.9050650  65.6450580  60.7240340
  57.3312980  61.0314550  72.0013910  56.9727920  61.6968400  72.5887250
  57.0367540  60.1998100  72.3726530  60.5326100  61.4898790  74.8853460
  60.2326240  61.6355970  73.9881280  61.3037340  60.9304080  74.7926850
  65.8754550  66.2867790  72.8808590  65.8899090  65.3548750  72.6627500
  65.1679650  66.3727550  73.5198360  72.0865760  62.9275130  72.2277170
  71.3613950  63.5203910  72.0306560  72.6141220  62.9198670  71.4290540
  72.0378870  67.3249870  61.8789330  71.3955030  66.6705490  62.1533050
  71.6509530  67.7304960  61.1030000  67.6165350  64.6535300  65.7261020
  67.9689170  64.0563430  65.0662390  66.7327680  64.3279530  65.8969270
  63.7028630  65.4132990  63.1331430  64.3899760  65.9602200  63.5139020
  62.9161050  65.9573720  63.1681040  63.0055840  62.4179020  62.7456790
  63.4618620  63.2284270  62.9716980  62.6544050  62.1002160  63.5775280
  65.3088450  67.9285360  69.9749090  65.9530670  68.1344740  70.6522510
  65.6717890  67.1673760  69.5219940  66.5820530  65.9317710  68.6926540
  67.2242760  65.2310870  68.8058710  67.1069880  66.7116150  68.5123430
  70.4276250  66.2166330  58.4165680  70.2013830  65.4996770  59.0090320
  70.0372450  65.9678770  57.5787430  68.3558150  66.7312610  71.8962600
  68.6914390  67.3179300  72.5740520  67.4358490  66.6005320  72.1260390
  55.9061550  54.5207790  72.6786010  55.1920070  54.7204710  73.2838620
  56.3256590  53.7447360  73.0500810  70.0092500  64.1338270  60.0779840
  69.7214200  64.5950960  60.8657720  70.8044670  63.6736040  60.3464060
  56.1934140  68.5088050  73.6652540  56.3025260  67.5682790  73.5247930
  55.5414700  68.7742800  73.0166270  64.1846730  66.7803940  75.0650660
  63.8643600  66.0613180  75.6096350  63.5105090  67.4559010  75.1386720
  62.2260900  67.6264390  60.0083810  62.2171000  68.3594080  59.3928320
  61.3059260  67.3795970  60.1010770  67.4000330  57.0130100  70.4287460
  67.7681150  56.1925310  70.7567030  66.5398530  57.0731990  70.8443110
  65.2120500  67.6892630  58.6709000  65.3132480  67.4856620  57.7410980
  64.3122240  67.4350910  58.8756780  64.3602320  59.6669690  70.6525430
  64.8587570  60.1415510  71.3177280  64.5025270  58.7433210  70.8595460
  66.7661820  54.9723650  64.0928690  66.6429600  54.9909780  63.1438200
  67.7146380  55.0202590  64.2127090  63.8538610  70.2078950  63.3656670
  64.1080110  70.1700340  62.4436040  62.9051090  70.0812280  63.3584920
  71.5669180  55.8837650  71.4953820  71.0642780  56.6243050  71.8347630
  72.3825840  56.2721650  71.1790610  69.8591190  61.1270830  64.9415180
  68.9181330  61.1421060  65.1162870  70.1735260  60.3406790  65.3875480
  71.8616770  68.2979680  66.6169440  71.9864190  69.1210850  67.0893250
  72.7282330  68.0870410  66.2693590  59.3334300  70.3910890  66.2886570
  60.0696780  69.8426350  66.5595140  59.7175220  71.2566900  66.1492560
  56.2179780  66.4584460  62.1628080  55.2919560  66.7005600  62.1533490
  56.6836210  67.2858720  62.0412830  58.3392580  69.5756960  75.4772150
  59.1405310  69.8969010  75.8907550  57.8244400  69.2152540  76.1992060
  62.4436610  69.5641200  58.1112140  63.2365220  69.8530030  57.6593930
  61.9240960  69.1333370  57.4324620  67.1757210  65.6836830  75.4247560
  66.5695370  65.7068430  74.6843310  66.8711320  64.9519870  75.9614810
  68.6057580  69.4117120  74.0356970  69.5579330  69.3275140  73.9857210
  68.4585800  70.0758830  74.7090760  71.4966780  68.7911330  59.5348880
  71.2108290  68.3776470  58.7203060  71.2986330  69.7199040  59.4149400
  56.0590390  62.0630420  74.4208200  56.5629410  61.4837700  74.9924430
  55.3197810  62.3470650  74.9584570  62.9614010  64.7844610  57.9754490
  62.8564650  64.1696960  58.7015870  62.7938230  64.2610500  57.1917500
  63.1128330  63.4701410  73.9543720  62.3474000  64.0386410  73.8698390
  63.2944290  63.1777620  73.0611950  66.2016740  63.8464640  58.5796480
  65.6526840  64.2933940  59.2239220  66.8236000  63.3413890  59.1034150
  70.2551680  65.2006740  74.5118740  70.9961150  65.5382500  74.0086200
  69.4924360  65.3698800  73.9588510  58.0913470  60.2060010  75.3158270
  58.1318810  59.9073880  76.2243500  58.9458970  60.6067620  75.1565790
  61.8691860  62.8055560  60.4761780  62.2908280  62.6395430  61.3193170
  61.9942700  61.9955790  59.9816920  60.0319280  58.7852110  73.2832760
  59.5015740  58.2943060  72.6556100  60.7007350  59.2136310  72.7490690
  68.9297340  63.2521570  73.0473950  69.3438360  63.4066650  73.8964370
  67.9948340  63.3776790  73.2099730  69.4019510  60.5917730  75.0513100
  69.9840280  59.8370050  74.9633580  69.5781280  61.1225170  74.2744580
  60.5191580  55.7514480  73.3630050  60.4248450  55.1335230  72.6380920
  59.9388970  56.4780770  73.1359960  63.2853020  54.3087720  70.3957440
  62.8370320  54.3311980  69.5502990  62.6518220  53.9106740  70.9927740
  63.6912570  63.2042050  71.0169880  64.1100680  64.0474780  70.8446120
  62.7721200  63.3414090  70.7876660  66.0276470  60.9358230  72.4007720
  66.1472680  60.3399370  73.1402560  66.8870470  60.9727920  71.9809020
  68.3664370  61.4895420  70.9770230  67.8399590  62.0138040  70.3735370
  68.7095710  62.1222810  71.6079960  61.5419990  69.5095060  72.1327610
  61.0041080  70.2341120  71.8136310  61.7953950  69.0325400  71.3424950
  62.7945240  57.4779580  73.6583540  63.3844930  57.1695430  74.3461360
  61.9765480  57.0059330  73.8143440  67.6138670  57.0945390  73.8916560
  66.9254190  56.4326930  73.8266550  68.3344690  56.6483660  74.3365020
  64.3982200  70.7446270  72.3914260  64.3240900  71.6481410  72.6986630
  63.4961040  70.4258170  72.3636330  64.9467530  69.9104780  60.0140620
  65.8418320  70.2489750  60.0359380  64.9785160  69.1884190  59.3864900
  55.8009490  68.0720860  65.6947880  56.1312500  67.2041920  65.4626520
  56.2300490  68.2779380  66.5252840  60.3971410  66.4029870  63.3549850
  60.0966950  66.2794840  64.2553760  60.2908900  65.5438460  62.9465580
  56.2899700  68.9391450  68.4329510  55.8530690  69.1192250  69.2653660
  56.8577380  69.6966070  68.2911230  71.9261880  68.4408450  72.7206820
  71.3263870  68.5001010  71.9770740  72.0555780  67.5013430  72.8503670
  73.1663330  66.1826270  58.0576530  72.3356290  66.2502920  58.5283760
  73.3435160  67.0730390  57.7543390  72.6219790  62.9273750  60.5610730
  73.3838700  63.4970400  60.6670420  72.6374160  62.3600950  61.3319040
  73.6279760  63.7823850  65.4052660  73.9988590  62.9991170  64.9988630
  74.2681690  64.4712950  65.2269960  70.6113520  65.1660430  70.8182980
  69.7973360  65.5957590  71.0808770  71.0187720  65.7778840  70.2052030
  72.6738960  63.2208120  57.7183250  72.9487800  64.1287000  57.5902470
  72.4849700  63.1570650  58.6545240  72.5704300  61.1577110  62.7112680
  72.1947900  60.3905040  62.2793970  71.8407420  61.5399810  63.1987610
  57.1600060  61.8364250  69.3321730  57.5273100  61.7491650  70.2117750
  56.5910880  61.0730800  69.2328590  71.9603920  60.3048630  72.3452200
  71.7290010  60.0761380  71.4450150  72.2208470  61.2248180  72.2997090
  56.7116060  58.7473340  73.2380150  55.8172110  58.7140100  73.5773860
  57.2513610  58.9460130  74.0031400  70.3991990  55.5305060  75.1231900
  71.2762170  55.5388460  75.5065900  70.4112830  54.7935900  74.5124250
  71.8455260  59.3834600  66.0119920  72.3692740  58.8897250  65.3810090
  72.4314680  59.5184960  66.7567490  72.0244980  59.4674470  69.5339470
  71.0747690  59.4338010  69.6484460  72.2057990  60.3774580  69.2989240
  71.3355230  58.6407950  61.9512330  71.8314350  58.4078820  62.7361210
  71.1371300  57.8019790  61.5349970  72.7642390  57.2768900  64.4850010
  72.6541670  57.1224940  65.4232280  73.5249980  56.7489840  64.2425420
  71.1108110  53.2163030  70.9433010  71.7480330  53.8297170  71.3092200
  71.2583000  53.2523690  69.9982240  73.6532660  55.1076820  57.7256150
  74.5781970  54.9758000  57.5174440  73.6308450  55.1869640  58.6792600
  73.7271150  55.8787480  60.3512860  72.9322650  55.8132600  60.8805770
  73.9314430  56.8138120  60.3398210  70.6689570  69.9179030  64.3451250
  71.2648640  69.5963600  63.6685670  70.9267720  69.4450850  65.1364520
  58.5752140  66.3496940  74.4941880  58.5321770  65.9789850  75.3756340
  58.7063150  67.2874510  74.6343700  62.2758170  67.9056530  70.0951600
  62.0349530  68.1731090  69.2082120  63.2160810  68.0762260  70.1502460
  64.4812590  54.3689220  73.8508110  64.4201480  54.9611050  74.6003520
  65.4212970  54.2615180  73.7058370  67.1187150  54.0259280  73.4900400
  67.7327560  54.3438570  72.8281480  67.6636710  53.5407870  74.1096260
  73.5362330  69.9250910  70.8962240  73.0420610  70.3219780  70.1789370
  72.9275620  69.3000120  71.2899520  57.6408410  52.7053540  73.6039460
  58.1891400  52.5241590  72.8405570  57.7063720  51.9147650  74.1395770
  58.4140170  69.2959190  71.6139660  57.8200490  69.1643890  72.3529700
  58.4064010  68.4597330  71.1481760  67.8595190  52.5891420  69.8169690
  66.9855030  52.9226530  69.6142620  67.7505940  52.1164600  70.6421560
  68.7667170  54.7962290  71.2011410  68.4380530  53.9814050  70.8213140
  69.7149470  54.7532100  71.0777100  71.2201780  70.5674330  68.1748980
  70.7604750  71.3190140  67.8007000  70.5914240  69.8480800  68.1163780
  58.0452400  66.6617570  70.5647700  57.3186460  66.0422860  70.4973650
  58.1061550  67.0558180  69.6945780  61.6497500  68.8762570  67.3497110
  62.1662520  68.2649930  66.8245370  62.2994880  69.3791350  67.8408120
  64.3893000  69.7671060  68.1766090  64.6770810  69.5125360  67.2999100
  64.9016220  69.2148420  68.7671660  65.6070010  53.5061260  68.7562600
  64.8241800  53.9806760  69.0359360  65.3132940  52.6016090  68.6475780
  70.1591080  54.2084360  66.8011690  70.5999170  54.1529460  65.9533290
  69.8898670  55.1242370  66.8721870  72.0229650  53.8399600  64.8120510
  71.9618050  52.8960820  64.6651530  72.8021680  53.9479690  65.3573970
  56.3282400  69.9791960  63.7744460  56.1604440  69.3462640  64.4726350
  55.4616910  70.1851360  63.4238650  63.4924230  55.9248010  64.2678630
  62.6798740  55.5504900  63.9274510  63.9965870  55.1693090  64.5699820
  67.9949210  52.5890460  65.5061700  68.5978580  53.1610670  65.9810220
  67.2542200  53.1529900  65.2835600  71.1383810  52.9912020  60.7801980
  71.3334440  53.8895470  61.0469410  70.3513680  52.7599100  61.2734930
  57.9345100  68.6725190  61.2194600  57.4092720  69.0533220  60.5156560
  57.8589680  69.2975960  61.9404310  64.4565360  70.6887160  75.5434290
  65.3832670  70.4531430  75.5870250  64.4415790  71.5159160  75.0620320
  72.6910420  70.2312730  62.5408540  72.8662610  69.5450470  61.8969460
  71.9931990  70.7559780  62.1485210  61.6428970  53.3531910  75.3076170
  61.3613240  53.8565510  74.5436990  62.0248670  52.5553660  74.9418300
  60.5338070  70.6207570  60.0943850  61.2656890  70.3366850  59.5467740
  60.7931740  70.3820850  60.9843230  59.6952860  66.7372300  60.0990180
  59.0661740  67.2057400  60.6476010  59.8100690  65.8921520  60.5336370
  68.2444430  52.7685490  75.8856640  68.1309880  53.0880100  76.7808160
  69.0614170  53.1698000  75.5893920  71.0242920  69.9157020  75.3675330
  71.8168240  69.4206250  75.1601290  71.3176070  70.5947160  75.9750940
  69.3028050  66.9717170  46.9099780  68.8409580  66.2004410  47.2386950
  70.1153600  66.9983240  47.4152230  65.5291360  69.2575180  46.5303770
  64.9102800  69.7132680  45.9598210  66.3843140  69.4126640  46.1293470
  73.8258450  57.5601740  51.8611710  73.1210620  57.9483450  51.3426820
  74.0916370  58.2552030  52.4632640  69.7720380  57.4835370  48.0695620
  69.0675950  57.7720260  48.6498730  70.1332540  58.2935480  47.7095180
  71.3883160  67.1010500  50.3323100  70.7046680  67.7709610  50.3239770
  71.9277450  67.2991150  49.5667960  72.8407300  56.9290160  48.4604830
  71.8932210  56.9629140  48.5920260  73.1657290  57.7429110  48.8454190
  68.9241900  68.9454630  49.0468280  68.9369060  68.5416920  48.1790540
  68.3717120  69.7201920  48.9429710  70.2187320  65.6670850  44.1358450
  70.1083650  64.7245180  44.2607870  70.2155570  66.0286490  45.0221210
  69.9231550  69.0800340  52.1002980  69.4462110  69.8872530  51.9075590
  69.2393340  68.4278670  52.2529190  61.5515940  68.0585180  55.8730200
  61.5231370  68.4628130  55.0058630  61.3880910  67.1295540  55.7101800
  73.5030760  68.8412280  57.1694370  73.9790480  69.3195170  57.8483450
  74.1237920  68.7729770  56.4439870  72.9064010  66.0325130  54.3294380
  73.0327070  65.7937010  53.4111560  72.9485390  65.2009670  54.8016460
  66.7680750  69.7353130  52.8989190  67.2825420  69.6461140  53.7011620
  65.9249830  70.0812830  53.1917100  68.7435150  70.0208470  42.3273190
  68.5836290  69.7311410  43.2255020  68.5781860  69.2448600  41.7918420
  61.2223530  69.8007000  44.1044810  61.0466010  68.8842540  43.8912610
  60.3679270  70.1594290  44.3442610  68.4461280  67.5296030  40.8871190
  67.7526440  67.5273320  40.2273470  69.1884140  67.1055350  40.4565360
  68.0111210  69.1558740  44.9619680  68.4668160  68.3748120  45.2758300
  68.3503730  69.8665560  45.5060860  72.7588020  58.0857590  55.2944120
  72.1432290  58.5937260  54.7659580  72.4384440  57.1855920  55.2370060
  70.6361180  53.2813050  54.8606270  70.9606950  52.5502710  55.3864250
  70.6717690  52.9626690  53.9587260  65.8754550  66.2867790  54.1065100
  65.8899090  65.3548750  53.8884010  65.1679650  66.3727550  54.7454870
  72.0865760  62.9275130  53.4533680  71.3613950  63.5203910  53.2563070
  72.6141220  62.9198670  52.6547050  72.0378870  67.3249870  43.1045840
  71.3955030  66.6705490  43.3789560  71.6509530  67.7304960  42.3286510
  65.3088450  67.9285360  51.2005600  65.9530670  68.1344740  51.8779020
  65.6717890  67.1673760  50.7476450  70.4276250  66.2166330  39.6422190
  70.2013830  65.4996770  40.2346830  70.0372450  65.9678770  38.8043940
  68.3558150  66.7312610  53.1219110  68.6914390  67.3179300  53.7997030
  67.4358490  66.6005320  53.3516900  56.2092280  70.2433190  40.4166650
  56.5689920  70.8422530  39.7623920  56.0684620  70.7893080  41.1901680
  64.1846730  66.7803940  56.2907170  63.8643600  66.0613180  56.8352860
  63.5105090  67.4559010  56.3643230  65.2120500  67.6892630  39.8965510
  65.3132480  67.4856620  38.9667490  64.3122240  67.4350910  40.1013290
  63.8538610  70.2078950  44.5913180  64.1080110  70.1700340  43.6692550
  62.9051090  70.0812280  44.5841430  71.5669180  55.8837650  52.7210330
  71.0642780  56.6243050  53.0604140  72.3825840  56.2721650  52.4047120
  69.8591190  61.1270830  46.1671690  68.9181330  61.1421060  46.3419380
  70.1735260  60.3406790  46.6131990  71.8616770  68.2979680  47.8425950
  71.9864190  69.1210850  48.3149760  72.7282330  68.0870410  47.4950100
  58.3392580  69.5756960  56.7028660  59.1405310  69.8969010  57.1164060
  57.8244400  69.2152540  57.4248570  67.1757210  65.6836830  56.6504070
  66.5695370  65.7068430  55.9099820  66.8711320  64.9519870  57.1871320
  68.6057580  69.4117120  55.2613480  69.5579330  69.3275140  55.2113720
  68.4585800  70.0758830  55.9347270  71.4966780  68.7911330  40.7605390
  71.2108290  68.3776470  39.9459570  71.2986330  69.7199040  40.6405910
  63.1128330  63.4701410  55.1800230  62.3474000  64.0386410  55.0954900
  63.2944290  63.1777620  54.2868460  70.2551680  65.2006740  55.7375250
  70.9961150  65.5382500  55.2342710  69.4924360  65.3698800  55.1845020
  61.5419990  69.5095060  53.3584120  61.0041080  70.2341120  53.0392820
  61.7953950  69.0325400  52.5681460  64.3982200  70.7446270  53.6170770
  64.3240900  71.6481410  53.9243140  63.4961040  70.4258170  53.5892840
  64.9467530  69.9104780  41.2397130  65.8418320  70.2489750  41.2615890
  64.9785160  69.1884190  40.6121410  71.9261880  68.4408450  53.9463330
  71.3263870  68.5001010  53.2027250  72.0555780  67.5013430  54.0760180
  73.1663330  66.1826270  39.2833040  72.3356290  66.2502920  39.7540270
  73.3435160  67.0730390  38.9799900  72.6219790  62.9273750  41.7867240
  73.3838700  63.4970400  41.8926930  72.6374160  62.3600950  42.5575550
  73.6279760  63.7823850  46.6309170  73.9988590  62.9991170  46.2245140
  74.2681690  64.4712950  46.4526470  70.6113520  65.1660430  52.0439490
  69.7973360  65.5957590  52.3065280  71.0187720  65.7778840  51.4308540
  72.6738960  63.2208120  38.9439760  72.9487800  64.1287000  38.8158980
  72.4849700  63.1570650  39.8801750  72.5704300  61.1577110  43.9369190
  72.1947900  60.3905040  43.5050480  71.8407420  61.5399810  44.4244120
  71.9603920  60.3048630  53.5708710  71.7290010  60.0761380  52.6706660
  72.2208470  61.2248180  53.5253600  71.8455260  59.3834600  47.2376430
  72.3692740  58.8897250  46.6066600  72.4314680  59.5184960  47.9824000
  72.0244980  59.4674470  50.7595980  71.0747690  59.4338010  50.8740970
  72.2057990  60.3774580  50.5245750  72.7642390  57.2768900  45.7106520
  72.6541670  57.1224940  46.6488790  73.5249980  56.7489840  45.4681930
  71.1108110  53.2163030  52.1689520  71.7480330  53.8297170  52.5348710
  71.2583000  53.2523690  51.2238750  70.6689570  69.9179030  45.5707760
  71.2648640  69.5963600  44.8942180  70.9267720  69.4450850  46.3621030
  73.5362330  69.9250910  52.1218750  73.0420610  70.3219780  51.4045880
  72.9275620  69.3000120  52.5156030  71.2201780  70.5674330  49.4005490
  70.7604750  71.3190140  49.0263510  70.5914240  69.8480800  49.3420290
  64.3893000  69.7671060  49.4022600  64.6770810  69.5125360  48.5255610
  64.9016220  69.2148420  49.9928170  57.9345100  68.6725190  42.4451110
  57.4092720  69.0533220  41.7413070  57.8589680  69.2975960  43.1660820
  64.4565360  70.6887160  56.7690800  65.3832670  70.4531430  56.8126760
  64.4415790  71.5159160  56.2876830  72.6910420  70.2312730  43.7665050
  72.8662610  69.5450470  43.1225970  71.9931990  70.7559780  43.3741720
  71.0242920  69.9157020  56.5931840  71.8168240  69.4206250  56.3857800
  71.3176070  70.5947160  57.2007450  69.3028050  66.9717170  28.1356290
  68.8409580  66.2004410  28.4643460  70.1153600  66.9983240  28.6408740
  59.2787710  66.9116880  30.4290940  59.5815750  66.0214620  30.2501160
  60.0231300  67.4687100  30.2013190  65.5291360  69.2575180  27.7560280
  64.9102800  69.7132680  27.1854720  66.3843140  69.4126640  27.3549980
  64.7229610  65.2414170  29.3627320  64.6537890  64.3004110  29.2016450
  65.4849470  65.3315580  29.9349890  66.3954710  64.1414420  25.1492190
  65.7771980  64.6063870  24.5854910  66.9077960  64.8341900  25.5661700
  71.3883160  67.1010500  31.5579610  70.7046680  67.7709610  31.5496280
  71.9277450  67.2991150  30.7924470  68.9241900  68.9454630  30.2724790
  68.9369060  68.5416920  29.4047050  68.3717120  69.7201920  30.1686220
  70.2187320  65.6670850  25.3614960  70.1083650  64.7245180  25.4864380
  70.2155570  66.0286490  26.2477720  72.2689440  62.2471690  31.6923640
  71.4408070  62.3164780  31.2173770  72.8639920  62.8326000  31.2239470
  69.7904890  62.8556470  25.2212700  69.1717310  62.5176020  24.5739000
  69.7729340  62.2116230  25.9291890  61.8345940  65.5068470  29.6636390
  61.5374230  64.9013940  28.9844170  62.7845760  65.5445780  29.5525750
  69.9231550  69.0800340  33.3259490  69.4462110  69.8872530  33.1332100
  69.2393340  68.4278670  33.4785700  67.9669590  62.0943280  22.2285450
  68.4062870  61.2565710  22.0823270  68.6798010  62.7272680  22.3149590
  66.0764970  67.0339350  26.1966690  66.5160880  67.7763680  25.7822080
  66.0151860  67.2765920  27.1205650  73.5030760  68.8412280  38.3950880
  73.9790480  69.3195170  39.0739960  74.1237920  68.7729770  37.6696380
  56.9501870  65.5861220  27.2178650  56.5429950  65.7275810  26.3632250
  57.8414880  65.3021380  27.0149860  72.9064010  66.0325130  35.5550890
  73.0327070  65.7937010  34.6368070  72.9485390  65.2009670  36.0272970
  68.7435150  70.0208470  23.5529700  68.5836290  69.7311410  24.4511530
  68.5781860  69.2448600  23.0174930  61.2223530  69.8007000  25.3301320
  61.0466010  68.8842540  25.1169120  60.3679270  70.1594290  25.5699120
  68.4461280  67.5296030  22.1127700  67.7526440  67.5273320  21.4529980
  69.1884140  67.1055350  21.6821870  68.0111210  69.1558740  26.1876190
  68.4668160  68.3748120  26.5014810  68.3503730  69.8665560  26.7317370
  59.8031040  64.3972800  23.9022420  59.0293300  63.8570420  23.7421140
  60.5325670  63.8779410  23.5640180  70.5619020  63.3938160  29.6948810
  71.2818140  63.8893450  29.3044920  70.3600840  62.7156050  29.0502680
  64.7337940  65.3319460  22.8128530  65.0753640  66.0761690  22.3171850
  63.9050650  65.6450580  23.1753360  71.0091620  60.4707610  21.6020220
  70.9255340  60.9021830  20.7516660  71.7285810  60.9305960  22.0347040
  72.0378870  67.3249870  24.3302350  71.3955030  66.6705490  24.6046070
  71.6509530  67.7304960  23.5543020  67.6165350  64.6535300  28.1774040
  67.9689170  64.0563430  27.5175410  66.7327680  64.3279530  28.3482290
  63.7028630  65.4132990  25.5844450  64.3899760  65.9602200  25.9652040
  62.9161050  65.9573720  25.6194060  70.4276250  66.2166330  20.8678700
  70.2013830  65.4996770  21.4603340  70.0372450  65.9678770  20.0300450
  56.2092280  70.2433190  21.6423160  56.5689920  70.8422530  20.9880430
  56.0684620  70.7893080  22.4158190  70.0092500  64.1338270  22.5292860
  69.7214200  64.5950960  23.3170740  70.8044670  63.6736040  22.7977080
  62.2260900  67.6264390  22.4596830  62.2171000  68.3594080  21.8441340
  61.3059260  67.3795970  22.5523790  65.2120500  67.6892630  21.1222020
  65.3132480  67.4856620  20.1924000  64.3122240  67.4350910  21.3269800
  63.8538610  70.2078950  25.8169690  64.1080110  70.1700340  24.8949060
  62.9051090  70.0812280  25.8097940  69.8591190  61.1270830  27.3928200
  68.9181330  61.1421060  27.5675890  70.1735260  60.3406790  27.8388500
  71.8616770  68.2979680  29.0682460  71.9864190  69.1210850  29.5406270
  72.7282330  68.0870410  28.7206610  59.3334300  70.3910890  28.7399590
  60.0696780  69.8426350  29.0108160  59.7175220  71.2566900  28.6005580
  56.2179780  66.4584460  24.6141100  55.2919560  66.7005600  24.6046510
  56.6836210  67.2858720  24.4925850  62.4436610  69.5641200  20.5625160
  63.2365220  69.8530030  20.1106950  61.9240960  69.1333370  19.8837640
  68.6057580  69.4117120  36.4869990  69.5579330  69.3275140  36.4370230
  68.4585800  70.0758830  37.1603780  71.4966780  68.7911330  21.9861900
  71.2108290  68.3776470  21.1716080  71.2986330  69.7199040  21.8662420
  62.9614010  64.7844610  20.4267510  62.8564650  64.1696960  21.1528890
  62.7938230  64.2610500  19.6430520  66.2016740  63.8464640  21.0309500
  65.6526840  64.2933940  21.6752240  66.8236000  63.3413890  21.5547170
  64.3819500  61.8293170  20.1751900  64.9025160  61.1142190  19.8093050
  65.0287900  62.4679040  20.4752410  64.9467530  69.9104780  22.4653640
  65.8418320  70.2489750  22.4872400  64.9785160  69.1884190  21.8377920
  58.5863690  65.2831830  20.6940640  59.0238560  65.8261500  21.3498220
  59.0711420  64.4578780  20.7036980  55.8009490  68.0720860  28.1460900
  56.1312500  67.2041920  27.9139540  56.2300490  68.2779380  28.9765860
  60.3971410  66.4029870  25.8062870  60.0966950  66.2794840  26.7066780
  60.2908900  65.5438460  25.3978600  56.2899700  68.9391450  30.8842530
  55.8530690  69.1192250  31.7166680  56.8577380  69.6966070  30.7424250
  71.9261880  68.4408450  35.1719840  71.3263870  68.5001010  34.4283760
  72.0555780  67.5013430  35.3016690  73.1663330  66.1826270  20.5089550
  72.3356290  66.2502920  20.9796780  73.3435160  67.0730390  20.2056410
  72.6219790  62.9273750  23.0123750  73.3838700  63.4970400  23.1183440
  72.6374160  62.3600950  23.7832060  73.6279760  63.7823850  27.8565680
  73.9988590  62.9991170  27.4501650  74.2681690  64.4712950  27.6782980
  72.6738960  63.2208120  20.1696270  72.9487800  64.1287000  20.0415490
  72.4849700  63.1570650  21.1058260  72.5704300  61.1577110  25.1625700
  72.1947900  60.3905040  24.7306990  71.8407420  61.5399810  25.6500630
  71.3355230  58.6407950  24.4025350  71.8314350  58.4078820  25.1874230
  71.1371300  57.8019790  23.9862990  72.7642390  57.2768900  26.9363030
  72.6541670  57.1224940  27.8745300  73.5249980  56.7489840  26.6938440
  73.6532660  55.1076820  20.1769170  74.5781970  54.9758000  19.9687460
  73.6308450  55.1869640  21.1305620  73.7271150  55.8787480  22.8025880
  72.9322650  55.8132600  23.3318790  73.9314430  56.8138120  22.7911230
  70.6689570  69.9179030  26.7964270  71.2648640  69.5963600  26.1198690
  70.9267720  69.4450850  27.5877540  73.5362330  69.9250910  33.3475260
  73.0420610  70.3219780  32.6302390  72.9275620  69.3000120  33.7412540
  71.2201780  70.5674330  30.6262000  70.7604750  71.3190140  30.2520020
  70.5914240  69.8480800  30.5676800  61.6497500  68.8762570  29.8010130
  62.1662520  68.2649930  29.2758390  62.2994880  69.3791350  30.2921140
  56.3282400  69.9791960  26.2257480  56.1604440  69.3462640  26.9239370
  55.4616910  70.1851360  25.8751670  57.9345100  68.6725190  23.6707620
  57.4092720  69.0533220  22.9669580  57.8589680  69.2975960  24.3917330
  72.6910420  70.2312730  24.9921560  72.8662610  69.5450470  24.3482480
  71.9931990  70.7559780  24.5998230  60.5338070  70.6207570  22.5456870
  61.2656890  70.3366850  21.9980760  60.7931740  70.3820850  23.4356250
  59.6952860  66.7372300  22.5503200  59.0661740  67.2057400  23.0989030
  59.8100690  65.8921520  22.9849390  71.0242920  69.9157020  37.8188350
  71.8168240  69.4206250  37.6114310  71.3176070  70.5947160  38.4263960
  67.1502580  60.7877960   8.7004400  67.0696630  59.8732570   8.4296110
  66.7367000  61.2845030   7.9944110  65.2820620  62.5656980  10.5813670
  64.5062720  62.0857420  10.8712240  65.9333550  61.8862630  10.4069830
  59.2986450  62.8776790  11.4589430  58.4671330  62.6225500  11.8585940
  59.9067430  62.9487560  12.1947350  69.3028050  66.9717170   9.3612800
  68.8409580  66.2004410   9.6899970  70.1153600  66.9983240   9.8665250
  59.2787710  66.9116880  11.6547450  59.5815750  66.0214620  11.4757670
  60.0231300  67.4687100  11.4269700  57.7078400  57.8378680   5.2431820
  56.8195100  58.1794650   5.1411700  57.9919590  57.6379000   4.3512650
  55.6711410  60.4384330  11.1271520  56.2427520  59.6706530  11.1275160
  55.6712950  60.7373090  10.2178130  65.5291360  69.2575180   8.9816790
  64.9102800  69.7132680   8.4111230  66.3843140  69.4126640   8.5806490
  64.7229610  65.2414170  10.5883830  64.6537890  64.3004110  10.4272960
  65.4849470  65.3315580  11.1606400  56.9136280  55.8468690  12.9140450
  56.7339120  54.9494440  13.1943210  56.5116360  56.3940560  13.5887400
  65.7534780  58.0484550  10.8152760  66.1299600  57.1756430  10.7026430
  65.6554290  58.3843250   9.9243200  59.8839790  56.4210180   6.2770200
  59.9906540  57.3213910   6.5838960  58.9732150  56.3728150   5.9864850
  69.5358900  55.5434990   7.7481100  70.3568520  55.0531560   7.7906580
  69.5692980  56.1332650   8.5012940  57.5322950  58.3429190  11.5222790
  58.2133060  58.6067560  12.1410190  57.2171000  57.5030060  11.8560800
  61.7247520  59.3896550  10.6095380  62.2325740  59.8877520  11.2500400
  62.2560760  58.6131750  10.4334740  73.8258450  57.5601740  14.3124730
  73.1210620  57.9483450  13.7939840  74.0916370  58.2552030  14.9145660
  60.0083620  54.0295110  14.8758800  60.0102060  54.5467500  14.0704700
  59.1787930  53.5525290  14.8528730  66.3954710  64.1414420   6.3748700
  65.7771980  64.6063870   5.8111420  66.9077960  64.8341900   6.7918210
  61.2586470  63.6690290  13.0532300  60.9255850  64.2959210  13.6953370
  61.4353150  64.1952170  12.2733970  69.7720380  57.4835370  10.5208640
  69.0675950  57.7720260  11.1011750  70.1332540  58.2935480  10.1608200
  59.6898950  55.7405070  12.8829250  60.0315760  56.5847120  12.5883120
  58.7514760  55.8888810  12.9994590  60.4705570  65.6371090  14.8681480
  61.0879570  66.3122170  14.5865930  59.6098690  66.0459070  14.7768980
  55.7637910  64.8270950   3.7488330  55.3865890  65.3158050   3.0173230
  56.0210980  65.4996230   4.3794860  71.3883160  67.1010500  12.7836120
  70.7046680  67.7709610  12.7752790  71.9277450  67.2991150  12.0180980
  72.8407300  56.9290160  10.9117850  71.8932210  56.9629140  11.0433280
  73.1657290  57.7429110  11.2967210  63.3726840  53.2287340   9.2073840
  63.6801820  52.6734230   8.4909340  62.4427540  53.3631800   9.0246830
  68.9241900  68.9454630  11.4981300  68.9369060  68.5416920  10.6303560
  68.3717120  69.7201920  11.3942730  70.2187320  65.6670850   6.5871470
  70.1083650  64.7245180   6.7120890  70.2155570  66.0286490   7.4734230
  68.3227340  63.8484470  12.8263910  68.7396130  63.6344580  11.9917370
  69.0467160  64.1057260  13.3972530  65.7607600  61.2936170   5.9433960
  64.8336880  61.2273550   6.1722430  65.9132420  62.2316300   5.8289200
  65.7476680  57.5653170   2.9401120  64.8080350  57.7267130   3.0253580
  66.0659940  58.2838850   2.3937110  72.2689440  62.2471690  12.9180150
  71.4408070  62.3164780  12.4430280  72.8639920  62.8326000  12.4495980
  69.7904890  62.8556470   6.4469210  69.1717310  62.5176020   5.7995510
  69.7729340  62.2116230   7.1548400  69.2331450  59.0341010  13.8635020
  68.8202630  59.8594720  14.1175010  68.5007400  58.4486050  13.6711380
  61.3664240  61.8200910   8.7253690  60.9621240  61.1078160   8.2299590
  61.4527360  61.4754150   9.6141730  61.8345940  65.5068470  10.8892900
  61.5374230  64.9013940  10.2100680  62.7845760  65.5445780  10.7782260
  60.0792860  58.5944120  12.5052730  60.6307450  58.7039460  11.7305980
  60.5936370  58.9681720  13.2207960  69.9231550  69.0800340  14.5516000
  69.4462110  69.8872530  14.3588610  69.2393340  68.4278670  14.7042210
  60.9264370  65.2450160  17.5400700  60.0292900  65.4690130  17.7874100
  60.9517240  65.3685100  16.5912100  67.9669590  62.0943280   3.4541960
  68.4062870  61.2565710   3.3079780  68.6798010  62.7272680   3.5406100
  59.7535590  62.1163480  16.1158070  59.6143360  62.9886280  16.4845470
  58.8716950  61.7736290  15.9706010  66.0764970  67.0339350   7.4223200
  66.5160880  67.7763680   7.0078590  66.0151860  67.2765920   8.3462160
  61.5515940  68.0585180  18.3243220  61.5231370  68.4628130  17.4571650
  61.3880910  67.1295540  18.1614820  71.5486730  53.3486090   1.7683000
  71.2359390  53.4412920   2.6682070  72.3099200  53.9267120   1.7180430
  58.0668870  60.7145890   6.2260340  57.9466470  61.4407980   5.6141610
  57.7569760  59.9448800   5.7488250  73.5030760  68.8412280  19.6207390
  73.9790480  69.3195170  20.2996470  74.1237920  68.7729770  18.8952890
  55.7054240  63.8861030  12.0328980  55.7834660  64.0209800  11.0884700
  56.3195920  63.1776920  12.2257100  56.9501870  65.5861220   8.4435160
  56.5429950  65.7275810   7.5888760  57.8414880  65.3021380   8.2406370
  72.9064010  66.0325130  16.7807400  73.0327070  65.7937010  15.8624580
  72.9485390  65.2009670  17.2529480  66.7680750  69.7353130  15.3502210
  67.2825420  69.6461140  16.1524640  65.9249830  70.0812830  15.6430120
  68.7435150  70.0208470   4.7786210  68.5836290  69.7311410   5.6768040
  68.5781860  69.2448600   4.2431440  61.2223530  69.8007000   6.5557830
  61.0466010  68.8842540   6.3425630  60.3679270  70.1594290   6.7955630
  68.4461280  67.5296030   3.3384210  67.7526440  67.5273320   2.6786490
  69.1884140  67.1055350   2.9078380  68.0111210  69.1558740   7.4132700
  68.4668160  68.3748120   7.7271320  68.3503730  69.8665560   7.9573880
  72.7588020  58.0857590  17.7457140  72.1432290  58.5937260  17.2172600
  72.4384440  57.1855920  17.6883080  55.7613760  64.9275200  14.5723440
  55.9244800  64.4580560  13.7542810  56.2266210  64.4198760  15.2372280
  60.5332530  54.0580960   9.6084010  60.0900680  54.8390500   9.2768530
  61.0917520  54.3810850  10.3154950  69.8206850  58.1458430  16.3415990
  68.9700440  57.8464180  16.6625060  69.6608640  58.3900440  15.4299810
  66.9156560  59.6460180  18.4414780  67.2409970  58.8123930  18.1017010
  67.7036890  60.1688700  18.5893110  63.6491350  53.6791660   4.4889840
  63.0245530  53.6751530   5.2143150  63.5621470  52.8122620   4.0925810
  62.5708430  54.6028290  11.4673610  62.8680760  55.5091120  11.3865630
  63.1193990  54.1147070  10.8533180  60.3246750  59.1814530   7.3365260
  60.0987670  58.9651700   8.2411880  59.5439280  59.6142990   6.9911230
  67.5544510  59.1877900   5.9355910  66.9553400  59.9113700   5.7519530
  68.1024120  59.1254680   5.1532360  62.7645960  60.0800110  18.0025530
  62.6689560  59.1394840  17.8525930  63.6077940  60.3015180  17.6073600
  66.1609380  57.8241440   7.9659190  66.5538950  58.1413640   7.1527880
  66.5226230  56.9453320   8.0803710  57.8956500  56.4913780  16.1559310
  57.5019890  57.3388990  16.3632090  57.2074900  55.8540150  16.3467950
  55.1973550  54.4142240  10.1889390  54.9086600  54.9845100  10.9014370
  55.9419310  53.9346690  10.5520620  66.7464520  60.4147190  12.0609970
  66.0145640  60.9234000  12.4100070  66.3488860  59.5977170  11.7598750
  63.1841910  57.0901390  10.4662460  63.1877970  56.6491340   9.6167000
  64.0793030  57.4118720  10.5734280  59.0344290  56.9727880   9.4256670
  58.6944340  57.4503110  10.1823720  58.2721610  56.5193000   9.0657770
  63.2462060  58.0913470   3.4569220  63.3674880  58.0499950   4.4055040
  62.8610570  58.9537620   3.3015950  67.2090430  55.8680870  11.4732910
  67.2263170  56.3189520  12.3174760  66.9606010  54.9686510  11.6866350
  62.2583560  60.4014610   2.8552520  61.6900460  59.9532860   2.2288430
  62.9672560  60.7607390   2.3217670  70.6361180  53.2813050  17.3119290
  70.9606950  52.5502710  17.8377270  70.6717690  52.9626690  16.4100280
  57.3352740  64.3026630  16.7319250  56.9507530  63.6620300  17.3302210
  57.6464930  65.0062750  17.3013980  63.4849880  61.1503170  12.2127870
  63.8520010  60.6761740  12.9589210  63.2954940  62.0244740  12.5536210
  56.3490370  55.8946860   8.3421340  56.0637290  55.5302530   9.1799960
  56.2869230  55.1627320   7.7284480  61.2749250  60.1911810  14.5312080
  60.9706320  61.0703790  14.7562440  62.2295710  60.2511600  14.5669520
  59.8031040  64.3972800   5.1278930  59.0293300  63.8570420   4.9677650
  60.5325670  63.8779410   4.7896690  70.5619020  63.3938160  10.9205320
  71.2818140  63.8893450  10.5301430  70.3600840  62.7156050  10.2759190
  66.0228960  54.7876120   5.0634710  65.2093570  54.2889290   4.9880020
  65.8290910  55.6274370   4.6471060  65.9437820  63.4647220  16.8074320
  65.8775130  62.5442890  16.5531910  65.3142960  63.5622660  17.5218960
  68.7377350  59.1595770   3.3596870  69.6256970  59.4713000   3.1848210
  68.7082440  58.2868020   2.9677450  59.8468440  64.0653180   8.7657740
  60.3647110  63.2621440   8.7114630  59.3952460  64.0032320   9.6074570
  64.7337940  65.3319460   4.0385040  65.0753640  66.0761690   3.5428360
  63.9050650  65.6450580   4.4009870  57.3312980  61.0314550  15.6783440
  56.9727920  61.6968400  16.2656780  57.0367540  60.1998100  16.0496060
  60.5326100  61.4898790  18.5622990  60.2326240  61.6355970  17.6650810
  61.3037340  60.9304080  18.4696380  65.8754550  66.2867790  16.5578120
  65.8899090  65.3548750  16.3397030  65.1679650  66.3727550  17.1967890
  71.0091620  60.4707610   2.8276730  70.9255340  60.9021830   1.9773170
  71.7285810  60.9305960   3.2603550  72.0865760  62.9275130  15.9046700
  71.3613950  63.5203910  15.7076090  72.6141220  62.9198670  15.1060070
  72.0378870  67.3249870   5.5558860  71.3955030  66.6705490   5.8302580
  71.6509530  67.7304960   4.7799530  67.6165350  64.6535300   9.4030550
  67.9689170  64.0563430   8.7431920  66.7327680  64.3279530   9.5738800
  63.7028630  65.4132990   6.8100960  64.3899760  65.9602200   7.1908550
  62.9161050  65.9573720   6.8450570  55.8421030  61.0305810   2.3018040
  56.7115880  61.3130610   2.5853960  55.3511350  61.8441680   2.1866850
  63.0055840  62.4179020   6.4226320  63.4618620  63.2284270   6.6486510
  62.6544050  62.1002160   7.2544810  65.3088450  67.9285360  13.6518620
  65.9530670  68.1344740  14.3292040  65.6717890  67.1673760  13.1989470
  58.9067620  52.7616670   6.8948840  58.7782250  52.7534570   7.8433760
  58.0829640  53.0999760   6.5439850  66.5820530  65.9317710  12.3696070
  67.2242760  65.2310870  12.4828240  67.1069880  66.7116150  12.1892960
  68.3558150  66.7312610  15.5732130  68.6914390  67.3179300  16.2510050
  67.4358490  66.6005320  15.8029920  56.2092280  70.2433190   2.8679670
  56.5689920  70.8422530   2.2136940  56.0684620  70.7893080   3.6414700
  70.0092500  64.1338270   3.7549370  69.7214200  64.5950960   4.5427250
  70.8044670  63.6736040   4.0233590  56.1934140  68.5088050  17.3422070
  56.3025260  67.5682790  17.2017460  55.5414700  68.7742800  16.6935800
  64.1846730  66.7803940  18.7420190  63.8643600  66.0613180  19.2865880
  63.5105090  67.4559010  18.8156250  62.2260900  67.6264390   3.6853340
  62.2171000  68.3594080   3.0697850  61.3059260  67.3795970   3.7780300
  57.8267540  62.8479280   4.4300100  57.2195490  63.5878180   4.4395400
  58.3016890  62.9378640   3.6038300  67.4000330  57.0130100  14.1056990
  67.7681150  56.1925310  14.4336560  66.5398530  57.0731990  14.5212640
  70.7662360  55.9687040   4.9144550  70.1375520  56.0732710   4.2002780
  70.2714280  56.1883820   5.7038430  62.7346390  58.2472990   6.3302430
  62.0262540  58.7159330   6.7716040  63.0190870  57.5895000   6.9647620
  64.3602320  59.6669690  14.3294960  64.8587570  60.1415510  14.9946810
  64.5025270  58.7433210  14.5364990  66.7661820  54.9723650   7.7698220
  66.6429600  54.9909780   6.8207730  67.7146380  55.0202590   7.8896620
  63.8538610  70.2078950   7.0426200  64.1080110  70.1700340   6.1205570
  62.9051090  70.0812280   7.0354450  60.9381410  56.5558070   3.7053140
  61.7871940  56.9928220   3.6393330  60.5712680  56.8678330   4.5325200
  71.5669180  55.8837650  15.1723350  71.0642780  56.6243050  15.5117160
  72.3825840  56.2721650  14.8560140  69.8591190  61.1270830   8.6184710
  68.9181330  61.1421060   8.7932400  70.1735260  60.3406790   9.0645010
  58.5319590  60.2415500   2.8621560  58.6123180  59.2943010   2.9738960
  59.4239340  60.5722380   2.9682220  71.8616770  68.2979680  10.2938970
  71.9864190  69.1210850  10.7662780  72.7282330  68.0870410   9.9463120
  59.3334300  70.3910890   9.9656100  60.0696780  69.8426350  10.2364670
  59.7175220  71.2566900   9.8262090  56.2179780  66.4584460   5.8397610
  55.2919560  66.7005600   5.8303020  56.6836210  67.2858720   5.7182360
  58.3392580  69.5756960  19.1541680  59.1405310  69.8969010  19.5677080
  57.8244400  69.2152540  19.8761590  67.1757210  65.6836830  19.1017090
  66.5695370  65.7068430  18.3612840  66.8711320  64.9519870  19.6384340
  68.6057580  69.4117120  17.7126500  69.5579330  69.3275140  17.6626740
  68.4585800  70.0758830  18.3860290  71.4966780  68.7911330   3.2118410
  71.2108290  68.3776470   2.3972590  71.2986330  69.7199040   3.0918930
  63.1128330  63.4701410  17.6313250  62.3474000  64.0386410  17.5467920
  63.2944290  63.1777620  16.7381480  66.2016740  63.8464640   2.2566010
  65.6526840  64.2933940   2.9008750  66.8236000  63.3413890   2.7803680
  70.2551680  65.2006740  18.1888270  70.9961150  65.5382500  17.6855730
  69.4924360  65.3698800  17.6358040  61.8691860  62.8055560   4.1531310
  62.2908280  62.6395430   4.9962700  61.9942700  61.9955790   3.6586450
  60.0319280  58.7852110  16.9602290  59.5015740  58.2943060  16.3325630
  60.7007350  59.2136310  16.4260220  68.9297340  63.2521570  16.7243480
  69.3438360  63.4066650  17.5733900  67.9948340  63.3776790  16.8869260
  69.4019510  60.5917730  18.7282630  69.9840280  59.8370050  18.6403110
  69.5781280  61.1225170  17.9514110  63.6912570  63.2042050  14.6939410
  64.1100680  64.0474780  14.5215650  62.7721200  63.3414090  14.4646190
  66.0276470  60.9358230  16.0777250  66.1472680  60.3399370  16.8172090
  66.8870470  60.9727920  15.6578550  68.3664370  61.4895420  14.6539760
  67.8399590  62.0138040  14.0504900  68.7095710  62.1222810  15.2849490
  61.5419990  69.5095060  15.8097140  61.0041080  70.2341120  15.4905840
  61.7953950  69.0325400  15.0194480  68.2439070  53.6897020   3.6276350
  68.5241360  52.8464920   3.9835770  67.4704800  53.9220130   4.1415100
  64.3982200  70.7446270  16.0683790  64.3240900  71.6481410  16.3756160
  63.4961040  70.4258170  16.0405860  64.9467530  69.9104780   3.6910150
  65.8418320  70.2489750   3.7128910  64.9785160  69.1884190   3.0634430
  58.5863690  65.2831830   1.9197150  59.0238560  65.8261500   2.5754730
  59.0711420  64.4578780   1.9293490  55.8009490  68.0720860   9.3717410
  56.1312500  67.2041920   9.1396050  56.2300490  68.2779380  10.2022370
  60.3971410  66.4029870   7.0319380  60.0966950  66.2794840   7.9323290
  60.2908900  65.5438460   6.6235110  56.2899700  68.9391450  12.1099040
  55.8530690  69.1192250  12.9423190  56.8577380  69.6966070  11.9680760
  71.9261880  68.4408450  16.3976350  71.3263870  68.5001010  15.6540270
  72.0555780  67.5013430  16.5273200  72.6219790  62.9273750   4.2380260
  73.3838700  63.4970400   4.3439950  72.6374160  62.3600950   5.0088570
  56.1224130  61.4511680   8.4687920  55.4672970  61.1823320   7.8247620
  56.9602080  61.3416160   8.0189900  73.6279760  63.7823850   9.0822190
  73.9988590  62.9991170   8.6758160  74.2681690  64.4712950   8.9039490
  70.6113520  65.1660430  14.4952510  69.7973360  65.5957590  14.7578300
  71.0187720  65.7778840  13.8821560  69.0714570  56.2452970   2.6906410
  69.4899450  56.0583950   1.8503070  68.7650630  55.3932020   3.0009340
  72.5704300  61.1577110   6.3882210  72.1947900  60.3905040   5.9563500
  71.8407420  61.5399810   6.8757140  57.1600060  61.8364250  13.0091260
  57.5273100  61.7491650  13.8887280  56.5910880  61.0730800  12.9098120
  71.9603920  60.3048630  16.0221730  71.7290010  60.0761380  15.1219680
  72.2208470  61.2248180  15.9766620  56.7116060  58.7473340  16.9149680
  55.8172110  58.7140100  17.2543390  57.2513610  58.9460130  17.6800930
  55.3362210  58.6610610   4.4113250  54.4326290  58.9240810   4.2364910
  55.8202830  58.9321780   3.6313210  71.8455260  59.3834600   9.6889450
  72.3692740  58.8897250   9.0579620  72.4314680  59.5184960  10.4337020
  72.0244980  59.4674470  13.2109000  71.0747690  59.4338010  13.3253990
  72.2057990  60.3774580  12.9758770  57.8789420  57.7176150   2.3207630
  58.5881120  57.2959370   1.8354910  57.1629360  57.7851380   1.6890980
  71.3355230  58.6407950   5.6281860  71.8314350  58.4078820   6.4130740
  71.1371300  57.8019790   5.2119500  57.2155770  53.0221670  11.2632900
  57.8631960  52.4719050  10.8228060  57.6357610  53.2764820  12.0848710
  72.7642390  57.2768900   8.1619540  72.6541670  57.1224940   9.1001810
  73.5249980  56.7489840   7.9194950  71.1108110  53.2163030  14.6202540
  71.7480330  53.8297170  14.9861730  71.2583000  53.2523690  13.6751770
  73.7271150  55.8787480   4.0282390  72.9322650  55.8132600   4.5575300
  73.9314430  56.8138120   4.0167740  70.6689570  69.9179030   8.0220780
  71.2648640  69.5963600   7.3455200  70.9267720  69.4450850   8.8134050
  56.9687770  53.1777340  14.0058220  56.6202590  53.6341160  14.7716400
  56.6375470  52.2834470  14.0880650  58.5752140  66.3496940  18.1711410
  58.5321770  65.9789850  19.0525870  58.7063150  67.2874510  18.3113230
  62.2758170  67.9056530  13.7721130  62.0349530  68.1731090  12.8851650
  63.2160810  68.0762260  13.8271990  73.5362330  69.9250910  14.5731770
  73.0420610  70.3219780  13.8558900  72.9275620  69.3000120  14.9669050
  58.4140170  69.2959190  15.2909190  57.8200490  69.1643890  16.0299230
  58.4064010  68.4597330  14.8251290  67.8595190  52.5891420  13.4939220
  66.9855030  52.9226530  13.2912150  67.7505940  52.1164600  14.3191090
  68.7667170  54.7962290  14.8780940  68.4380530  53.9814050  14.4982670
  69.7149470  54.7532100  14.7546630  71.2201780  70.5674330  11.8518510
  70.7604750  71.3190140  11.4776530  70.5914240  69.8480800  11.7933310
  58.0452400  66.6617570  14.2417230  57.3186460  66.0422860  14.1743180
  58.1061550  67.0558180  13.3715310  61.6497500  68.8762570  11.0266640
  62.1662520  68.2649930  10.5014900  62.2994880  69.3791350  11.5177650
  64.3893000  69.7671060  11.8535620  64.6770810  69.5125360  10.9768630
  64.9016220  69.2148420  12.4441190  65.6070010  53.5061260  12.4332130
  64.8241800  53.9806760  12.7128890  65.3132940  52.6016090  12.3245310
  70.1591080  54.2084360  10.4781220  70.5999170  54.1529460   9.6302820
  69.8898670  55.1242370  10.5491400  72.0229650  53.8399600   8.4890040
  71.9618050  52.8960820   8.3421060  72.8021680  53.9479690   9.0343500
  56.3282400  69.9791960   7.4513990  56.1604440  69.3462640   8.1495880
  55.4616910  70.1851360   7.1008180  56.9510420  53.8108740   4.9545850
  57.7089780  53.9237620   4.3809880  56.4887590  54.6477940   4.9089280
  63.4924230  55.9248010   7.9448160  62.6798740  55.5504900   7.6044040
  63.9965870  55.1693090   8.2469350  67.9949210  52.5890460   9.1831230
  68.5978580  53.1610670   9.6579750  67.2542200  53.1529900   8.9605130
  71.1383810  52.9912020   4.4571510  71.3334440  53.8895470   4.7238940
  70.3513680  52.7599100   4.9504460  57.9345100  68.6725190   4.8964130
  57.4092720  69.0533220   4.1926090  57.8589680  69.2975960   5.6173840
  59.3235570  54.3372790   3.4947820  59.8528330  53.5502590   3.3655770
  59.9563890  55.0163980   3.7283350  61.5173410  54.0747930   6.5493210
  60.8876150  53.3735240   6.7163340  60.9778550  54.8352060   6.3326370
  64.4565360  70.6887160  19.2203820  65.3832670  70.4531430  19.2639780
  64.4415790  71.5159160  18.7389850  72.6910420  70.2312730   6.2178070
  72.8662610  69.5450470   5.5738990  71.9931990  70.7559780   5.8254740
  60.5338070  70.6207570   3.7713380  61.2656890  70.3366850   3.2237270
  60.7931740  70.3820850   4.6612760  59.6952860  66.7372300   3.7759710
  59.0661740  67.2057400   4.3245540  59.8100690  65.8921520   4.2105900
  71.0242920  69.9157020  19.0444860  71.8168240  69.4206250  18.8370820
  71.3176070  70.5947160  19.6520470  67.1502580  42.0134470  83.7978360
  67.0696630  41.0989080  83.5270070  66.7367000  42.5101540  83.0918070
  65.2820620  43.7913490  85.6787630  64.5062720  43.3113930  85.9686200
  65.9333550  43.1119140  85.5043790  59.2986450  44.1033300  86.5563390
  58.4671330  43.8482010  86.9559900  59.9067430  44.1744070  87.2921310
  69.3028050  48.1973680  84.4586760  68.8409580  47.4260920  84.7873930
  70.1153600  48.2239750  84.9639210  59.2787710  48.1373390  86.7521410
  59.5815750  47.2471130  86.5731630  60.0231300  48.6943610  86.5243660
  57.7078400  39.0635190  80.3405780  56.8195100  39.4051160  80.2385660
  57.9919590  38.8635510  79.4486610  55.6711410  41.6640840  86.2245480
  56.2427520  40.8963040  86.2249120  55.6712950  41.9629600  85.3152090
  65.5291360  50.4831690  84.0790750  64.9102800  50.9389190  83.5085190
  66.3843140  50.6383150  83.6780450  64.7229610  46.4670680  85.6857790
  64.6537890  45.5260620  85.5246920  65.4849470  46.5572090  86.2580360
  56.9136280  37.0725200  88.0114410  56.7339120  36.1750950  88.2917170
  56.5116360  37.6197070  88.6861360  65.7534780  39.2741060  85.9126720
  66.1299600  38.4012940  85.8000390  65.6554290  39.6099760  85.0217160
  59.8839790  37.6466690  81.3744160  59.9906540  38.5470420  81.6812920
  58.9732150  37.5984660  81.0838810  69.5358900  36.7691500  82.8455060
  70.3568520  36.2788070  82.8880540  69.5692980  37.3589160  83.5986900
  57.5322950  39.5685700  86.6196750  58.2133060  39.8324070  87.2384150
  57.2171000  38.7286570  86.9534760  61.7247520  40.6153060  85.7069340
  62.2325740  41.1134030  86.3474360  62.2560760  39.8388260  85.5308700
  73.8258450  38.7858250  89.4098690  73.1210620  39.1739960  88.8913800
  74.0916370  39.4808540  90.0119620  60.0083620  35.2551620  89.9732760
  60.0102060  35.7724010  89.1678660  59.1787930  34.7781800  89.9502690
  66.3954710  45.3670930  81.4722660  65.7771980  45.8320380  80.9085380
  66.9077960  46.0598410  81.8892170  61.2586470  44.8946800  88.1506260
  60.9255850  45.5215720  88.7927330  61.4353150  45.4208680  87.3707930
  69.7720380  38.7091880  85.6182600  69.0675950  38.9976770  86.1985710
  70.1332540  39.5191990  85.2582160  59.6898950  36.9661580  87.9803210
  60.0315760  37.8103630  87.6857080  58.7514760  37.1145320  88.0968550
  60.4705570  46.8627600  89.9655440  61.0879570  47.5378680  89.6839890
  59.6098690  47.2715580  89.8742940  55.7637910  46.0527460  78.8462290
  55.3865890  46.5414560  78.1147190  56.0210980  46.7252740  79.4768820
  71.3883160  48.3267010  87.8810080  70.7046680  48.9966120  87.8726750
  71.9277450  48.5247660  87.1154940  72.8407300  38.1546670  86.0091810
  71.8932210  38.1885650  86.1407240  73.1657290  38.9685620  86.3941170
  63.3726840  34.4543850  84.3047800  63.6801820  33.8990740  83.5883300
  62.4427540  34.5888310  84.1220790  68.9241900  50.1711140  86.5955260
  68.9369060  49.7673430  85.7277520  68.3717120  50.9458430  86.4916690
  70.2187320  46.8927360  81.6845430  70.1083650  45.9501690  81.8094850
  70.2155570  47.2543000  82.5708190  68.3227340  45.0740980  87.9237870
  68.7396130  44.8601090  87.0891330  69.0467160  45.3313770  88.4946490
  65.7607600  42.5192680  81.0407920  64.8336880  42.4530060  81.2696390
  65.9132420  43.4572810  80.9263160  65.7476680  38.7909680  78.0375080
  64.8080350  38.9523640  78.1227540  66.0659940  39.5095360  77.4911070
  72.2689440  43.4728200  88.0154110  71.4408070  43.5421290  87.5404240
  72.8639920  44.0582510  87.5469940  69.7904890  44.0812980  81.5443170
  69.1717310  43.7432530  80.8969470  69.7729340  43.4372740  82.2522360
  69.2331450  40.2597520  88.9608980  68.8202630  41.0851230  89.2148970
  68.5007400  39.6742560  88.7685340  61.3664240  43.0457420  83.8227650
  60.9621240  42.3334670  83.3273550  61.4527360  42.7010660  84.7115690
  61.8345940  46.7324980  85.9866860  61.5374230  46.1270450  85.3074640
  62.7845760  46.7702290  85.8756220  60.0792860  39.8200630  87.6026690
  60.6307450  39.9295970  86.8279940  60.5936370  40.1938230  88.3181920
  69.9231550  50.3056850  89.6489960  69.4462110  51.1129040  89.4562570
  69.2393340  49.6535180  89.8016170  60.9264370  46.4706670  92.6374660
  60.0292900  46.6946640  92.8848060  60.9517240  46.5941610  91.6886060
  67.9669590  43.3199790  78.5515920  68.4062870  42.4822220  78.4053740
  68.6798010  43.9529190  78.6380060  59.7535590  43.3419990  91.2132030
  59.6143360  44.2142790  91.5819430  58.8716950  42.9992800  91.0679970
  66.0764970  48.2595860  82.5197160  66.5160880  49.0020190  82.1052550
  66.0151860  48.5022430  83.4436120  61.5515940  49.2841690  93.4217180
  61.5231370  49.6884640  92.5545610  61.3880910  48.3552050  93.2588780
  71.5486730  34.5742600  76.8656960  71.2359390  34.6669430  77.7656030
  72.3099200  35.1523630  76.8154390  58.0668870  41.9402400  81.3234300
  57.9466470  42.6664490  80.7115570  57.7569760  41.1705310  80.8462210
  55.7054240  45.1117540  87.1302940  55.7834660  45.2466310  86.1858660
  56.3195920  44.4033430  87.3231060  56.9501870  46.8117730  83.5409120
  56.5429950  46.9532320  82.6862720  57.8414880  46.5277890  83.3380330
  72.9064010  47.2581640  91.8781360  73.0327070  47.0193520  90.9598540
  72.9485390  46.4266180  92.3503440  66.7680750  50.9609640  90.4476170
  67.2825420  50.8717650  91.2498600  65.9249830  51.3069340  90.7404080
  68.7435150  51.2464980  79.8760170  68.5836290  50.9567920  80.7742000
  68.5781860  50.4705110  79.3405400  61.2223530  51.0263510  81.6531790
  61.0466010  50.1099050  81.4399590  60.3679270  51.3850800  81.8929590
  68.4461280  48.7552540  78.4358170  67.7526440  48.7529830  77.7760450
  69.1884140  48.3311860  78.0052340  68.0111210  50.3815250  82.5106660
  68.4668160  49.6004630  82.8245280  68.3503730  51.0922070  83.0547840
  72.7588020  39.3114100  92.8431100  72.1432290  39.8193770  92.3146560
  72.4384440  38.4112430  92.7857040  55.7613760  46.1531710  89.6697400
  55.9244800  45.6837070  88.8516770  56.2266210  45.6455270  90.3346240
  60.5332530  35.2837470  84.7057970  60.0900680  36.0647010  84.3742490
  61.0917520  35.6067360  85.4128910  64.8202340  38.1505990  90.3093290
  64.3581710  38.3589010  91.1213230  64.4180450  37.3365340  90.0063960
  69.8206850  39.3714940  91.4389950  68.9700440  39.0720690  91.7599020
  69.6608640  39.6156950  90.5273770  66.9156560  40.8716690  93.5388740
  67.2409970  40.0380440  93.1990970  67.7036890  41.3945210  93.6867070
  63.6491350  34.9048170  79.5863800  63.0245530  34.9008040  80.3117110
  63.5621470  34.0379130  79.1899770  62.5708430  35.8284800  86.5647570
  62.8680760  36.7347630  86.4839590  63.1193990  35.3403580  85.9507140
  60.3246750  40.4071040  82.4339220  60.0987670  40.1908210  83.3385840
  59.5439280  40.8399500  82.0885190  67.5544510  40.4134410  81.0329870
  66.9553400  41.1370210  80.8493490  68.1024120  40.3511190  80.2506320
  62.7645960  41.3056620  93.0999490  62.6689560  40.3651350  92.9499890
  63.6077940  41.5271690  92.7047560  66.1609380  39.0497950  83.0633150
  66.5538950  39.3670150  82.2501840  66.5226230  38.1709830  83.1777670
  57.8956500  37.7170290  91.2533270  57.5019890  38.5645500  91.4606050
  57.2074900  37.0796660  91.4441910  55.1973550  35.6398750  85.2863350
  54.9086600  36.2101610  85.9988330  55.9419310  35.1603200  85.6494580
  55.3843780  39.5818870  76.4966070  55.3018450  40.5249630  76.6381060
  55.0326840  39.4393780  75.6178420  66.7464520  41.6403700  87.1583930
  66.0145640  42.1490510  87.5074030  66.3488860  40.8233680  86.8572710
  63.1841910  38.3157900  85.5636420  63.1877970  37.8747850  84.7140960
  64.0793030  38.6375230  85.6708240  59.0344290  38.1984390  84.5230630
  58.6944340  38.6759620  85.2797680  58.2721610  37.7449510  84.1631730
  63.2462060  39.3169980  78.5543180  63.3674880  39.2756460  79.5029000
  62.8610570  40.1794130  78.3989910  67.2090430  37.0937380  86.5706870
  67.2263170  37.5446030  87.4148720  66.9606010  36.1943020  86.7840310
  62.2583560  41.6271120  77.9526480  61.6900460  41.1789370  77.3262390
  62.9672560  41.9863900  77.4191630  70.6361180  34.5069560  92.4093250
  70.9606950  33.7759220  92.9351230  70.6717690  34.1883200  91.5074240
  57.3352740  45.5283140  91.8293210  56.9507530  44.8876810  92.4276170
  57.6464930  46.2319260  92.3987940  63.4849880  42.3759680  87.3101830
  63.8520010  41.9018250  88.0563170  63.2954940  43.2501250  87.6510170
  56.3490370  37.1203370  83.4395300  56.0637290  36.7559040  84.2773920
  56.2869230  36.3883830  82.8258440  61.2749250  41.4168320  89.6286040
  60.9706320  42.2960300  89.8536400  62.2295710  41.4768110  89.6643480
  59.8031040  45.6229310  80.2252890  59.0293300  45.0826930  80.0651610
  60.5325670  45.1035920  79.8870650  70.5619020  44.6194670  86.0179280
  71.2818140  45.1149960  85.6275390  70.3600840  43.9412560  85.3733150
  66.0228960  36.0132630  80.1608670  65.2093570  35.5145800  80.0853980
  65.8290910  36.8530880  79.7445020  65.9437820  44.6903730  91.9048280
  65.8775130  43.7699400  91.6505870  65.3142960  44.7879170  92.6192920
  68.7377350  40.3852280  78.4570830  69.6256970  40.6969510  78.2822170
  68.7082440  39.5124530  78.0651410  59.8468440  45.2909690  83.8631700
  60.3647110  44.4877950  83.8088590  59.3952460  45.2288830  84.7048530
  64.7337940  46.5575970  79.1359000  65.0753640  47.3018200  78.6402320
  63.9050650  46.8707090  79.4983830  57.3312980  42.2571060  90.7757400
  56.9727920  42.9224910  91.3630740  57.0367540  41.4254610  91.1470020
  60.5326100  42.7155300  93.6596950  60.2326240  42.8612480  92.7624770
  61.3037340  42.1560590  93.5670340  65.8754550  47.5124300  91.6552080
  65.8899090  46.5805260  91.4370990  65.1679650  47.5984060  92.2941850
  71.0091620  41.6964120  77.9250690  70.9255340  42.1278340  77.0747130
  71.7285810  42.1562470  78.3577510  72.0865760  44.1531640  91.0020660
  71.3613950  44.7460420  90.8050050  72.6141220  44.1455180  90.2034030
  72.0378870  48.5506380  80.6532820  71.3955030  47.8962000  80.9276540
  71.6509530  48.9561470  79.8773490  67.6165350  45.8791810  84.5004510
  67.9689170  45.2819940  83.8405880  66.7327680  45.5536040  84.6712760
  63.7028630  46.6389500  81.9074920  64.3899760  47.1858710  82.2882510
  62.9161050  47.1830230  81.9424530  55.8421030  42.2562320  77.3992000
  56.7115880  42.5387120  77.6827920  55.3511350  43.0698190  77.2840810
  63.0055840  43.6435530  81.5200280  63.4618620  44.4540780  81.7460470
  62.6544050  43.3258670  82.3518770  65.3088450  49.1541870  88.7492580
  65.9530670  49.3601250  89.4266000  65.6717890  48.3930270  88.2963430
  58.9067620  33.9873180  81.9922800  58.7782250  33.9791080  82.9407720
  58.0829640  34.3256270  81.6413810  66.5820530  47.1574220  87.4670030
  67.2242760  46.4567380  87.5802200  67.1069880  47.9372660  87.2866920
  70.4276250  47.4422840  77.1909170  70.2013830  46.7253280  77.7833810
  70.0372450  47.1935280  76.3530920  68.3558150  47.9569120  90.6706090
  68.6914390  48.5435810  91.3484010  67.4358490  47.8261830  90.9003880
  56.2092280  51.4689700  77.9653630  56.5689920  52.0679040  77.3110900
  56.0684620  52.0149590  78.7388660  55.9061550  35.7464300  91.4529500
  55.1920070  35.9461220  92.0582110  56.3256590  34.9703870  91.8244300
  70.0092500  45.3594780  78.8523330  69.7214200  45.8207470  79.6401210
  70.8044670  44.8992550  79.1207550  56.1934140  49.7344560  92.4396030
  56.3025260  48.7939300  92.2991420  55.5414700  49.9999310  91.7909760
  62.2260900  48.8520900  78.7827300  62.2171000  49.5850590  78.1671810
  61.3059260  48.6052480  78.8754260  57.8267540  44.0735790  79.5274060
  57.2195490  44.8134690  79.5369360  58.3016890  44.1635150  78.7012260
  67.4000330  38.2386610  89.2030950  67.7681150  37.4181820  89.5310520
  66.5398530  38.2988500  89.6186600  70.7662360  37.1943550  80.0118510
  70.1375520  37.2989220  79.2976740  70.2714280  37.4140330  80.8012390
  65.2120500  48.9149140  77.4452490  65.3132480  48.7113130  76.5154470
  64.3122240  48.6607420  77.6500270  62.7346390  39.4729500  81.4276390
  62.0262540  39.9415840  81.8690000  63.0190870  38.8151510  82.0621580
  64.3602320  40.8926200  89.4268920  64.8587570  41.3672020  90.0920770
  64.5025270  39.9689720  89.6338950  66.7661820  36.1980160  82.8672180
  66.6429600  36.2166290  81.9181690  67.7146380  36.2459100  82.9870580
  63.8538610  51.4335460  82.1400160  64.1080110  51.3956850  81.2179530
  62.9051090  51.3068790  82.1328410  60.9381410  37.7814580  78.8027100
  61.7871940  38.2184730  78.7367290  60.5712680  38.0934840  79.6299160
  71.5669180  37.1094160  90.2697310  71.0642780  37.8499560  90.6091120
  72.3825840  37.4978160  89.9534100  69.8591190  42.3527340  83.7158670
  68.9181330  42.3677570  83.8906360  70.1735260  41.5663300  84.1618970
  59.8372830  44.0346940  77.2762630  60.6036100  43.9228300  77.8388060
  59.9147520  43.3384910  76.6239400  58.5319590  41.4672010  77.9595520
  58.6123180  40.5199520  78.0712920  59.4239340  41.7978890  78.0656180
  71.8616770  49.5236190  85.3912930  71.9864190  50.3467360  85.8636740
  72.7282330  49.3126920  85.0437080  59.3334300  51.6167400  85.0630060
  60.0696780  51.0682860  85.3338630  59.7175220  52.4823410  84.9236050
  56.2179780  47.6840970  80.9371570  55.2919560  47.9262110  80.9276980
  56.6836210  48.5115230  80.8156320  62.4436610  50.7897710  76.8855630
  63.2365220  51.0786540  76.4337420  61.9240960  50.3589880  76.2068110
  68.6057580  50.6373630  92.8100460  69.5579330  50.5531650  92.7600700
  68.4585800  51.3015340  93.4834250  71.4966780  50.0167840  78.3092370
  71.2108290  49.6032980  77.4946550  71.2986330  50.9455550  78.1892890
  56.0590390  43.2886930  93.1951690  56.5629410  42.7094210  93.7667920
  55.3197810  43.5727160  93.7328060  62.9614010  46.0101120  76.7497980
  62.8564650  45.3953470  77.4759360  62.7938230  45.4867010  75.9660990
  63.1128330  44.6957920  92.7287210  62.3474000  45.2642920  92.6441880
  63.2944290  44.4034130  91.8355440  66.2016740  45.0721150  77.3539970
  65.6526840  45.5190450  77.9982710  66.8236000  44.5670400  77.8777640
  70.2551680  46.4263250  93.2862230  70.9961150  46.7639010  92.7829690
  69.4924360  46.5955310  92.7332000  61.8691860  44.0312070  79.2505270
  62.2908280  43.8651940  80.0936660  61.9942700  43.2212300  78.7560410
  60.0319280  40.0108620  92.0576250  59.5015740  39.5199570  91.4299590
  60.7007350  40.4392820  91.5234180  64.3819500  43.0549680  76.4982370
  64.9025160  42.3398700  76.1323520  65.0287900  43.6935550  76.7982880
  68.9297340  44.4778080  91.8217440  69.3438360  44.6323160  92.6707860
  67.9948340  44.6033300  91.9843220  69.4019510  41.8174240  93.8256590
  69.9840280  41.0626560  93.7377070  69.5781280  42.3481680  93.0488070
  60.5191580  36.9770990  92.1373540  60.4248450  36.3591740  91.4124410
  59.9388970  37.7037280  91.9103450  63.2853020  35.5344230  89.1700930
  62.8370320  35.5568490  88.3246480  62.6518220  35.1363250  89.7671230
  63.6912570  44.4298560  89.7913370  64.1100680  45.2731290  89.6189610
  62.7721200  44.5670600  89.5620150  66.0276470  42.1614740  91.1751210
  66.1472680  41.5655880  91.9146050  66.8870470  42.1984430  90.7552510
  68.3664370  42.7151930  89.7513720  67.8399590  43.2394550  89.1478860
  68.7095710  43.3479320  90.3823450  60.7650760  40.1045300  76.1963430
  60.5639820  39.2412660  76.5576770  60.5942810  40.0178660  75.2585030
  61.5419990  50.7351570  90.9071100  61.0041080  51.4597630  90.5879800
  61.7953950  50.2581910  90.1168440  62.7945240  38.7036090  92.4327030
  63.3844930  38.3951940  93.1204850  61.9765480  38.2315840  92.5886930
  67.6138670  38.3201900  92.6660050  66.9254190  37.6583440  92.6010040
  68.3344690  37.8740170  93.1108510  68.2439070  34.9153530  78.7250310
  68.5241360  34.0721430  79.0809730  67.4704800  35.1476640  79.2389060
  59.5633560  37.2045920  76.1841310  59.8659460  37.2113350  75.2760460
  60.3028150  36.8543780  76.6808970  64.3982200  51.9702780  91.1657750
  64.3240900  52.8737920  91.4730120  63.4961040  51.6514680  91.1379820
  62.7818490  36.1480540  77.1697510  62.4340490  35.4704530  76.5899960
  62.9831260  35.6870050  77.9840900  64.9467530  51.1361290  78.7884110
  65.8418320  51.4746260  78.8102870  64.9785160  50.4140700  78.1608390
  58.5863690  46.5088340  77.0171110  59.0238560  47.0518010  77.6728690
  59.0711420  45.6835290  77.0267450  55.8009490  49.2977370  84.4691370
  56.1312500  48.4298430  84.2370010  56.2300490  49.5035890  85.2996330
  60.3971410  47.6286380  82.1293340  60.0966950  47.5051350  83.0297250
  60.2908900  46.7694970  81.7209070  56.2899700  50.1647960  87.2073000
  55.8530690  50.3448760  88.0397150  56.8577380  50.9222580  87.0654720
  71.9261880  49.6664960  91.4950310  71.3263870  49.7257520  90.7514230
  72.0555780  48.7269940  91.6247160  73.1663330  47.4082780  76.8320020
  72.3356290  47.4759430  77.3027250  73.3435160  48.2986900  76.5286880
  72.6219790  44.1530260  79.3354220  73.3838700  44.7226910  79.4413910
  72.6374160  43.5857460  80.1062530  56.1224130  42.6768190  83.5661880
  55.4672970  42.4079830  82.9221580  56.9602080  42.5672670  83.1163860
  73.6279760  45.0080360  84.1796150  73.9988590  44.2247680  83.7732120
  74.2681690  45.6969460  84.0013450  70.6113520  46.3916940  89.5926470
  69.7973360  46.8214100  89.8552260  71.0187720  47.0035350  88.9795520
  72.6738960  44.4464630  76.4926740  72.9487800  45.3543510  76.3645960
  72.4849700  44.3827160  77.4288730  69.0714570  37.4709480  77.7880370
  69.4899450  37.2840460  76.9477030  68.7650630  36.6188530  78.0983300
  72.5704300  42.3833620  81.4856170  72.1947900  41.6161550  81.0537460
  71.8407420  42.7656320  81.9731100  57.1600060  43.0620760  88.1065220
  57.5273100  42.9748160  88.9861240  56.5910880  42.2987310  88.0072080
  71.9603920  41.5305140  91.1195690  71.7290010  41.3017890  90.2193640
  72.2208470  42.4504690  91.0740580  56.7116060  39.9729850  92.0123640
  55.8172110  39.9396610  92.3517350  57.2513610  40.1716640  92.7774890
  55.3362210  39.8867120  79.5087210  54.4326290  40.1497320  79.3338870
  55.8202830  40.1578290  78.7287170  71.8455260  40.6091110  84.7863410
  72.3692740  40.1153760  84.1553580  72.4314680  40.7441470  85.5310980
  72.0244980  40.6930980  88.3082960  71.0747690  40.6594520  88.4227950
  72.2057990  41.6031090  88.0732730  57.8789420  38.9432660  77.4181590
  58.5881120  38.5215880  76.9328870  57.1629360  39.0107890  76.7864940
  57.5263580  34.9971990  76.4584240  58.2491710  35.5380930  76.7765460
  57.7988100  34.7235410  75.5825780  71.3355230  39.8664460  80.7255820
  71.8314350  39.6335330  81.5104700  71.1371300  39.0276300  80.3093460
  57.2155770  34.2478180  86.3606860  57.8631960  33.6975560  85.9202020
  57.6357610  34.5021330  87.1822670  72.7642390  38.5025410  83.2593500
  72.6541670  38.3481450  84.1975770  73.5249980  37.9746350  83.0168910
  71.1108110  34.4419540  89.7176500  71.7480330  35.0553680  90.0835690
  71.2583000  34.4780200  88.7725730  73.6532660  36.3333330  76.4999640
  74.5781970  36.2014510  76.2917930  73.6308450  36.4126150  77.4536090
  73.7271150  37.1043990  79.1256350  72.9322650  37.0389110  79.6549260
  73.9314430  38.0394630  79.1141700  70.6689570  51.1435540  83.1194740
  71.2648640  50.8220110  82.4429160  70.9267720  50.6707360  83.9108010
  56.9687770  34.4033850  89.1032180  56.6202590  34.8597670  89.8690360
  56.6375470  33.5090980  89.1854610  62.2758170  49.1313040  88.8695090
  62.0349530  49.3987600  87.9825610  63.2160810  49.3018770  88.9245950
  64.4812590  35.5945730  92.6251600  64.4201480  36.1867560  93.3747010
  65.4212970  35.4871690  92.4801860  67.1187150  35.2515790  92.2643890
  67.7327560  35.5695080  91.6024970  67.6636710  34.7664380  92.8839750
  73.5362330  51.1507420  89.6705730  73.0420610  51.5476290  88.9532860
  72.9275620  50.5256630  90.0643010  57.6408410  33.9310050  92.3782950
  58.1891400  33.7498100  91.6149060  57.7063720  33.1404160  92.9139260
  58.4140170  50.5215700  90.3883150  57.8200490  50.3900400  91.1273190
  58.4064010  49.6853840  89.9225250  67.8595190  33.8147930  88.5913180
  66.9855030  34.1483040  88.3886110  67.7505940  33.3421110  89.4165050
  68.7667170  36.0218800  89.9754900  68.4380530  35.2070560  89.5956630
  69.7149470  35.9788610  89.8520590  71.2201780  51.7930840  86.9492470
  70.7604750  52.5446650  86.5750490  70.5914240  51.0737310  86.8907270
  58.0452400  47.8874080  89.3391190  57.3186460  47.2679370  89.2717140
  58.1061550  48.2814690  88.4689270  61.6497500  50.1019080  86.1240600
  62.1662520  49.4906440  85.5988860  62.2994880  50.6047860  86.6151610
  64.3893000  50.9927570  86.9509580  64.6770810  50.7381870  86.0742590
  64.9016220  50.4404930  87.5415150  65.6070010  34.7317770  87.5306090
  64.8241800  35.2063270  87.8102850  65.3132940  33.8272600  87.4219270
  70.1591080  35.4340870  85.5755180  70.5999170  35.3785970  84.7276780
  69.8898670  36.3498880  85.6465360  72.0229650  35.0656110  83.5864000
  71.9618050  34.1217330  83.4395020  72.8021680  35.1736200  84.1317460
  56.3282400  51.2048470  82.5487950  56.1604440  50.5719150  83.2469840
  55.4616910  51.4107870  82.1982140  56.9510420  35.0365250  80.0519810
  57.7089780  35.1494130  79.4783840  56.4887590  35.8734450  80.0063240
  63.4924230  37.1504520  83.0422120  62.6798740  36.7761410  82.7018000
  63.9965870  36.3949600  83.3443310  67.9949210  33.8146970  84.2805190
  68.5978580  34.3867180  84.7553710  67.2542200  34.3786410  84.0579090
  71.1383810  34.2168530  79.5545470  71.3334440  35.1151980  79.8212900
  70.3513680  33.9855610  80.0478420  57.9345100  49.8981700  79.9938090
  57.4092720  50.2789730  79.2900050  57.8589680  50.5232470  80.7147800
  59.3235570  35.5629300  78.5921780  59.8528330  34.7759100  78.4629730
  59.9563890  36.2420490  78.8257310  61.5173410  35.3004440  81.6467170
  60.8876150  34.5991750  81.8137300  60.9778550  36.0608570  81.4300330
  72.6910420  51.4569240  81.3152030  72.8662610  50.7706980  80.6712950
  71.9931990  51.9816290  80.9228700  60.5338070  51.8464080  78.8687340
  61.2656890  51.5623360  78.3211230  60.7931740  51.6077360  79.7586720
  59.6952860  47.9628810  78.8733670  59.0661740  48.4313910  79.4219500
  59.8100690  47.1178030  79.3079860  67.1502580  42.0134470  65.0234870
  67.0696630  41.0989080  64.7526580  66.7367000  42.5101540  64.3174580
  65.2820620  43.7913490  66.9044140  64.5062720  43.3113930  67.1942710
  65.9333550  43.1119140  66.7300300  59.2986450  44.1033300  67.7819900
  58.4671330  43.8482010  68.1816410  59.9067430  44.1744070  68.5177820
  69.3028050  48.1973680  65.6843270  68.8409580  47.4260920  66.0130440
  70.1153600  48.2239750  66.1895720  59.2787710  48.1373390  67.9777920
  59.5815750  47.2471130  67.7988140  60.0231300  48.6943610  67.7500170
  57.7078400  39.0635190  61.5662290  56.8195100  39.4051160  61.4642170
  57.9919590  38.8635510  60.6743120  65.5291360  50.4831690  65.3047260
  64.9102800  50.9389190  64.7341700  66.3843140  50.6383150  64.9036960
  64.7229610  46.4670680  66.9114300  64.6537890  45.5260620  66.7503430
  65.4849470  46.5572090  67.4836870  56.9136280  37.0725200  69.2370920
  56.7339120  36.1750950  69.5173680  56.5116360  37.6197070  69.9117870
  65.7534780  39.2741060  67.1383230  66.1299600  38.4012940  67.0256900
  65.6554290  39.6099760  66.2473670  59.8839790  37.6466690  62.6000670
  59.9906540  38.5470420  62.9069430  58.9732150  37.5984660  62.3095320
  69.5358900  36.7691500  64.0711570  70.3568520  36.2788070  64.1137050
  69.5692980  37.3589160  64.8243410  57.5322950  39.5685700  67.8453260
  58.2133060  39.8324070  68.4640660  57.2171000  38.7286570  68.1791270
  61.7247520  40.6153060  66.9325850  62.2325740  41.1134030  67.5730870
  62.2560760  39.8388260  66.7565210  73.8258450  38.7858250  70.6355200
  73.1210620  39.1739960  70.1170310  74.0916370  39.4808540  71.2376130
  60.0083620  35.2551620  71.1989270  60.0102060  35.7724010  70.3935170
  59.1787930  34.7781800  71.1759200  66.3954710  45.3670930  62.6979170
  65.7771980  45.8320380  62.1341890  66.9077960  46.0598410  63.1148680
  61.2586470  44.8946800  69.3762770  60.9255850  45.5215720  70.0183840
  61.4353150  45.4208680  68.5964440  69.7720380  38.7091880  66.8439110
  69.0675950  38.9976770  67.4242220  70.1332540  39.5191990  66.4838670
  59.6898950  36.9661580  69.2059720  60.0315760  37.8103630  68.9113590
  58.7514760  37.1145320  69.3225060  60.4705570  46.8627600  71.1911950
  61.0879570  47.5378680  70.9096400  59.6098690  47.2715580  71.0999450
  71.3883160  48.3267010  69.1066590  70.7046680  48.9966120  69.0983260
  71.9277450  48.5247660  68.3411450  72.8407300  38.1546670  67.2348320
  71.8932210  38.1885650  67.3663750  73.1657290  38.9685620  67.6197680
  63.3726840  34.4543850  65.5304310  63.6801820  33.8990740  64.8139810
  62.4427540  34.5888310  65.3477300  68.9241900  50.1711140  67.8211770
  68.9369060  49.7673430  66.9534030  68.3717120  50.9458430  67.7173200
  70.2187320  46.8927360  62.9101940  70.1083650  45.9501690  63.0351360
  70.2155570  47.2543000  63.7964700  68.3227340  45.0740980  69.1494380
  68.7396130  44.8601090  68.3147840  69.0467160  45.3313770  69.7203000
  65.7607600  42.5192680  62.2664430  64.8336880  42.4530060  62.4952900
  65.9132420  43.4572810  62.1519670  65.7476680  38.7909680  59.2631590
  64.8080350  38.9523640  59.3484050  66.0659940  39.5095360  58.7167580
  72.2689440  43.4728200  69.2410620  71.4408070  43.5421290  68.7660750
  72.8639920  44.0582510  68.7726450  69.7904890  44.0812980  62.7699680
  69.1717310  43.7432530  62.1225980  69.7729340  43.4372740  63.4778870
  69.2331450  40.2597520  70.1865490  68.8202630  41.0851230  70.4405480
  68.5007400  39.6742560  69.9941850  61.3664240  43.0457420  65.0484160
  60.9621240  42.3334670  64.5530060  61.4527360  42.7010660  65.9372200
  61.8345940  46.7324980  67.2123370  61.5374230  46.1270450  66.5331150
  62.7845760  46.7702290  67.1012730  60.0792860  39.8200630  68.8283200
  60.6307450  39.9295970  68.0536450  60.5936370  40.1938230  69.5438430
  69.9231550  50.3056850  70.8746470  69.4462110  51.1129040  70.6819080
  69.2393340  49.6535180  71.0272680  60.9264370  46.4706670  73.8631170
  60.0292900  46.6946640  74.1104570  60.9517240  46.5941610  72.9142570
  67.9669590  43.3199790  59.7772430  68.4062870  42.4822220  59.6310250
  68.6798010  43.9529190  59.8636570  59.7535590  43.3419990  72.4388540
  59.6143360  44.2142790  72.8075940  58.8716950  42.9992800  72.2936480
  66.0764970  48.2595860  63.7453670  66.5160880  49.0020190  63.3309060
  66.0151860  48.5022430  64.6692630  61.5515940  49.2841690  74.6473690
  61.5231370  49.6884640  73.7802120  61.3880910  48.3552050  74.4845290
  71.5486730  34.5742600  58.0913470  71.2359390  34.6669430  58.9912540
  72.3099200  35.1523630  58.0410900  58.0668870  41.9402400  62.5490810
  57.9466470  42.6664490  61.9372080  57.7569760  41.1705310  62.0718720
  73.5030760  50.0668790  75.9437860  73.9790480  50.5451680  76.6226940
  74.1237920  49.9986280  75.2183360  55.7054240  45.1117540  68.3559450
  55.7834660  45.2466310  67.4115170  56.3195920  44.4033430  68.5487570
  72.9064010  47.2581640  73.1037870  73.0327070  47.0193520  72.1855050
  72.9485390  46.4266180  73.5759950  66.7680750  50.9609640  71.6732680
  67.2825420  50.8717650  72.4755110  65.9249830  51.3069340  71.9660590
  68.7435150  51.2464980  61.1016680  68.5836290  50.9567920  61.9998510
  68.5781860  50.4705110  60.5661910  68.4461280  48.7552540  59.6614680
  67.7526440  48.7529830  59.0016960  69.1884140  48.3311860  59.2308850
  68.0111210  50.3815250  63.7363170  68.4668160  49.6004630  64.0501790
  68.3503730  51.0922070  64.2804350  72.7588020  39.3114100  74.0687610
  72.1432290  39.8193770  73.5403070  72.4384440  38.4112430  74.0113550
  55.7613760  46.1531710  70.8953910  55.9244800  45.6837070  70.0773280
  56.2266210  45.6455270  71.5602750  60.5332530  35.2837470  65.9314480
  60.0900680  36.0647010  65.5999000  61.0917520  35.6067360  66.6385420
  64.8202340  38.1505990  71.5349800  64.3581710  38.3589010  72.3469740
  64.4180450  37.3365340  71.2320470  69.8206850  39.3714940  72.6646460
  68.9700440  39.0720690  72.9855530  69.6608640  39.6156950  71.7530280
  66.9156560  40.8716690  74.7645250  67.2409970  40.0380440  74.4247480
  67.7036890  41.3945210  74.9123580  63.6491350  34.9048170  60.8120310
  63.0245530  34.9008040  61.5373620  63.5621470  34.0379130  60.4156280
  62.5708430  35.8284800  67.7904080  62.8680760  36.7347630  67.7096100
  63.1193990  35.3403580  67.1763650  60.3246750  40.4071040  63.6595730
  60.0987670  40.1908210  64.5642350  59.5439280  40.8399500  63.3141700
  67.5544510  40.4134410  62.2586380  66.9553400  41.1370210  62.0750000
  68.1024120  40.3511190  61.4762830  62.7645960  41.3056620  74.3256000
  62.6689560  40.3651350  74.1756400  63.6077940  41.5271690  73.9304070
  66.1609380  39.0497950  64.2889660  66.5538950  39.3670150  63.4758350
  66.5226230  38.1709830  64.4034180  57.8956500  37.7170290  72.4789780
  57.5019890  38.5645500  72.6862560  57.2074900  37.0796660  72.6698420
  64.4701550  37.8005260  75.5486520  63.7799870  37.6077460  76.1832610
  65.2133850  38.0839900  76.0810820  55.1973550  35.6398750  66.5119860
  54.9086600  36.2101610  67.2244840  55.9419310  35.1603200  66.8751090
  66.7464520  41.6403700  68.3840440  66.0145640  42.1490510  68.7330540
  66.3488860  40.8233680  68.0829220  63.1841910  38.3157900  66.7892930
  63.1877970  37.8747850  65.9397470  64.0793030  38.6375230  66.8964750
  59.0344290  38.1984390  65.7487140  58.6944340  38.6759620  66.5054190
  58.2721610  37.7449510  65.3888240  63.2462060  39.3169980  59.7799690
  63.3674880  39.2756460  60.7285510  62.8610570  40.1794130  59.6246420
  67.2090430  37.0937380  67.7963380  67.2263170  37.5446030  68.6405230
  66.9606010  36.1943020  68.0096820  62.2583560  41.6271120  59.1782990
  61.6900460  41.1789370  58.5518900  62.9672560  41.9863900  58.6448140
  70.6361180  34.5069560  73.6349760  70.9606950  33.7759220  74.1607740
  70.6717690  34.1883200  72.7330750  57.3352740  45.5283140  73.0549720
  56.9507530  44.8876810  73.6532680  57.6464930  46.2319260  73.6244450
  63.4849880  42.3759680  68.5358340  63.8520010  41.9018250  69.2819680
  63.2954940  43.2501250  68.8766680  61.2749250  41.4168320  70.8542550
  60.9706320  42.2960300  71.0792910  62.2295710  41.4768110  70.8899990
  59.8031040  45.6229310  61.4509400  59.0293300  45.0826930  61.2908120
  60.5325670  45.1035920  61.1127160  70.5619020  44.6194670  67.2435790
  71.2818140  45.1149960  66.8531900  70.3600840  43.9412560  66.5989660
  66.0228960  36.0132630  61.3865180  65.2093570  35.5145800  61.3110490
  65.8290910  36.8530880  60.9701530  65.9437820  44.6903730  73.1304790
  65.8775130  43.7699400  72.8762380  65.3142960  44.7879170  73.8449430
  68.7377350  40.3852280  59.6827340  69.6256970  40.6969510  59.5078680
  68.7082440  39.5124530  59.2907920  59.8468440  45.2909690  65.0888210
  60.3647110  44.4877950  65.0345100  59.3952460  45.2288830  65.9305040
  64.7337940  46.5575970  60.3615510  65.0753640  47.3018200  59.8658830
  63.9050650  46.8707090  60.7240340  57.3312980  42.2571060  72.0013910
  56.9727920  42.9224910  72.5887250  57.0367540  41.4254610  72.3726530
  60.5326100  42.7155300  74.8853460  60.2326240  42.8612480  73.9881280
  61.3037340  42.1560590  74.7926850  65.8754550  47.5124300  72.8808590
  65.8899090  46.5805260  72.6627500  65.1679650  47.5984060  73.5198360
  71.0091620  41.6964120  59.1507200  70.9255340  42.1278340  58.3003640
  71.7285810  42.1562470  59.5834020  72.0865760  44.1531640  72.2277170
  71.3613950  44.7460420  72.0306560  72.6141220  44.1455180  71.4290540
  72.0378870  48.5506380  61.8789330  71.3955030  47.8962000  62.1533050
  71.6509530  48.9561470  61.1030000  67.6165350  45.8791810  65.7261020
  67.9689170  45.2819940  65.0662390  66.7327680  45.5536040  65.8969270
  63.7028630  46.6389500  63.1331430  64.3899760  47.1858710  63.5139020
  62.9161050  47.1830230  63.1681040  63.0055840  43.6435530  62.7456790
  63.4618620  44.4540780  62.9716980  62.6544050  43.3258670  63.5775280
  65.3088450  49.1541870  69.9749090  65.9530670  49.3601250  70.6522510
  65.6717890  48.3930270  69.5219940  58.9067620  33.9873180  63.2179310
  58.7782250  33.9791080  64.1664230  58.0829640  34.3256270  62.8670320
  66.5820530  47.1574220  68.6926540  67.2242760  46.4567380  68.8058710
  67.1069880  47.9372660  68.5123430  70.4276250  47.4422840  58.4165680
  70.2013830  46.7253280  59.0090320  70.0372450  47.1935280  57.5787430
  68.3558150  47.9569120  71.8962600  68.6914390  48.5435810  72.5740520
  67.4358490  47.8261830  72.1260390  55.9061550  35.7464300  72.6786010
  55.1920070  35.9461220  73.2838620  56.3256590  34.9703870  73.0500810
  70.0092500  45.3594780  60.0779840  69.7214200  45.8207470  60.8657720
  70.8044670  44.8992550  60.3464060  56.1934140  49.7344560  73.6652540
  56.3025260  48.7939300  73.5247930  55.5414700  49.9999310  73.0166270
  64.1846730  48.0060450  75.0650660  63.8643600  47.2869690  75.6096350
  63.5105090  48.6815520  75.1386720  57.8267540  44.0735790  60.7530570
  57.2195490  44.8134690  60.7625870  58.3016890  44.1635150  59.9268770
  67.4000330  38.2386610  70.4287460  67.7681150  37.4181820  70.7567030
  66.5398530  38.2988500  70.8443110  70.7662360  37.1943550  61.2375020
  70.1375520  37.2989220  60.5233250  70.2714280  37.4140330  62.0268900
  65.2120500  48.9149140  58.6709000  65.3132480  48.7113130  57.7410980
  64.3122240  48.6607420  58.8756780  62.7346390  39.4729500  62.6532900
  62.0262540  39.9415840  63.0946510  63.0190870  38.8151510  63.2878090
  64.3602320  40.8926200  70.6525430  64.8587570  41.3672020  71.3177280
  64.5025270  39.9689720  70.8595460  66.7661820  36.1980160  64.0928690
  66.6429600  36.2166290  63.1438200  67.7146380  36.2459100  64.2127090
  63.8538610  51.4335460  63.3656670  64.1080110  51.3956850  62.4436040
  62.9051090  51.3068790  63.3584920  60.9381410  37.7814580  60.0283610
  61.7871940  38.2184730  59.9623800  60.5712680  38.0934840  60.8555670
  71.5669180  37.1094160  71.4953820  71.0642780  37.8499560  71.8347630
  72.3825840  37.4978160  71.1790610  69.8591190  42.3527340  64.9415180
  68.9181330  42.3677570  65.1162870  70.1735260  41.5663300  65.3875480
  59.8372830  44.0346940  58.5019140  60.6036100  43.9228300  59.0644570
  59.9147520  43.3384910  57.8495910  58.5319590  41.4672010  59.1852030
  58.6123180  40.5199520  59.2969430  59.4239340  41.7978890  59.2912690
  71.8616770  49.5236190  66.6169440  71.9864190  50.3467360  67.0893250
  72.7282330  49.3126920  66.2693590  58.3392580  50.8013470  75.4772150
  59.1405310  51.1225520  75.8907550  57.8244400  50.4409050  76.1992060
  67.1757210  46.9093340  75.4247560  66.5695370  46.9324940  74.6843310
  66.8711320  46.1776380  75.9614810  68.6057580  50.6373630  74.0356970
  69.5579330  50.5531650  73.9857210  68.4585800  51.3015340  74.7090760
  71.4966780  50.0167840  59.5348880  71.2108290  49.6032980  58.7203060
  71.2986330  50.9455550  59.4149400  56.0590390  43.2886930  74.4208200
  56.5629410  42.7094210  74.9924430  55.3197810  43.5727160  74.9584570
  62.9614010  46.0101120  57.9754490  62.8564650  45.3953470  58.7015870
  62.7938230  45.4867010  57.1917500  63.1128330  44.6957920  73.9543720
  62.3474000  45.2642920  73.8698390  63.2944290  44.4034130  73.0611950
  66.2016740  45.0721150  58.5796480  65.6526840  45.5190450  59.2239220
  66.8236000  44.5670400  59.1034150  70.2551680  46.4263250  74.5118740
  70.9961150  46.7639010  74.0086200  69.4924360  46.5955310  73.9588510
  58.0913470  41.4316520  75.3158270  58.1318810  41.1330390  76.2243500
  58.9458970  41.8324130  75.1565790  61.8691860  44.0312070  60.4761780
  62.2908280  43.8651940  61.3193170  61.9942700  43.2212300  59.9816920
  60.0319280  40.0108620  73.2832760  59.5015740  39.5199570  72.6556100
  60.7007350  40.4392820  72.7490690  64.3819500  43.0549680  57.7238880
  64.9025160  42.3398700  57.3580030  65.0287900  43.6935550  58.0239390
  68.9297340  44.4778080  73.0473950  69.3438360  44.6323160  73.8964370
  67.9948340  44.6033300  73.2099730  69.4019510  41.8174240  75.0513100
  69.9840280  41.0626560  74.9633580  69.5781280  42.3481680  74.2744580
  60.5191580  36.9770990  73.3630050  60.4248450  36.3591740  72.6380920
  59.9388970  37.7037280  73.1359960  63.2853020  35.5344230  70.3957440
  62.8370320  35.5568490  69.5502990  62.6518220  35.1363250  70.9927740
  63.6912570  44.4298560  71.0169880  64.1100680  45.2731290  70.8446120
  62.7721200  44.5670600  70.7876660  66.0276470  42.1614740  72.4007720
  66.1472680  41.5655880  73.1402560  66.8870470  42.1984430  71.9809020
  68.3664370  42.7151930  70.9770230  67.8399590  43.2394550  70.3735370
  68.7095710  43.3479320  71.6079960  60.7650760  40.1045300  57.4219940
  60.5639820  39.2412660  57.7833280  60.5942810  40.0178660  56.4841540
  61.5419990  50.7351570  72.1327610  61.0041080  51.4597630  71.8136310
  61.7953950  50.2581910  71.3424950  62.7945240  38.7036090  73.6583540
  63.3844930  38.3951940  74.3461360  61.9765480  38.2315840  73.8143440
  67.6138670  38.3201900  73.8916560  66.9254190  37.6583440  73.8266550
  68.3344690  37.8740170  74.3365020  68.2439070  34.9153530  59.9506820
  68.5241360  34.0721430  60.3066240  67.4704800  35.1476640  60.4645570
  59.5633560  37.2045920  57.4097820  59.8659460  37.2113350  56.5016970
  60.3028150  36.8543780  57.9065480  64.3982200  51.9702780  72.3914260
  64.3240900  52.8737920  72.6986630  63.4961040  51.6514680  72.3636330
  62.7818490  36.1480540  58.3954020  62.4340490  35.4704530  57.8156470
  62.9831260  35.6870050  59.2097410  58.5863690  46.5088340  58.2427620
  59.0238560  47.0518010  58.8985200  59.0711420  45.6835290  58.2523960
  71.9261880  49.6664960  72.7206820  71.3263870  49.7257520  71.9770740
  72.0555780  48.7269940  72.8503670  73.1663330  47.4082780  58.0576530
  72.3356290  47.4759430  58.5283760  73.3435160  48.2986900  57.7543390
  72.6219790  44.1530260  60.5610730  73.3838700  44.7226910  60.6670420
  72.6374160  43.5857460  61.3319040  73.6279760  45.0080360  65.4052660
  73.9988590  44.2247680  64.9988630  74.2681690  45.6969460  65.2269960
  70.6113520  46.3916940  70.8182980  69.7973360  46.8214100  71.0808770
  71.0187720  47.0035350  70.2052030  72.6738960  44.4464630  57.7183250
  72.9487800  45.3543510  57.5902470  72.4849700  44.3827160  58.6545240
  69.0714570  37.4709480  59.0136880  69.4899450  37.2840460  58.1733540
  68.7650630  36.6188530  59.3239810  72.5704300  42.3833620  62.7112680
  72.1947900  41.6161550  62.2793970  71.8407420  42.7656320  63.1987610
  57.1600060  43.0620760  69.3321730  57.5273100  42.9748160  70.2117750
  56.5910880  42.2987310  69.2328590  71.9603920  41.5305140  72.3452200
  71.7290010  41.3017890  71.4450150  72.2208470  42.4504690  72.2997090
  56.7116060  39.9729850  73.2380150  55.8172110  39.9396610  73.5773860
  57.2513610  40.1716640  74.0031400  70.3991990  36.7561570  75.1231900
  71.2762170  36.7644970  75.5065900  70.4112830  36.0192410  74.5124250
  71.8455260  40.6091110  66.0119920  72.3692740  40.1153760  65.3810090
  72.4314680  40.7441470  66.7567490  72.0244980  40.6930980  69.5339470
  71.0747690  40.6594520  69.6484460  72.2057990  41.6031090  69.2989240
  57.8789420  38.9432660  58.6438100  58.5881120  38.5215880  58.1585380
  57.1629360  39.0107890  58.0121450  71.3355230  39.8664460  61.9512330
  71.8314350  39.6335330  62.7361210  71.1371300  39.0276300  61.5349970
  57.2155770  34.2478180  67.5863370  57.8631960  33.6975560  67.1458530
  57.6357610  34.5021330  68.4079180  72.7642390  38.5025410  64.4850010
  72.6541670  38.3481450  65.4232280  73.5249980  37.9746350  64.2425420
  71.1108110  34.4419540  70.9433010  71.7480330  35.0553680  71.3092200
  71.2583000  34.4780200  69.9982240  73.6532660  36.3333330  57.7256150
  74.5781970  36.2014510  57.5174440  73.6308450  36.4126150  58.6792600
  73.7271150  37.1043990  60.3512860  72.9322650  37.0389110  60.8805770
  73.9314430  38.0394630  60.3398210  70.6689570  51.1435540  64.3451250
  71.2648640  50.8220110  63.6685670  70.9267720  50.6707360  65.1364520
  56.9687770  34.4033850  70.3288690  56.6202590  34.8597670  71.0946870
  56.6375470  33.5090980  70.4111120  58.5752140  47.5753450  74.4941880
  58.5321770  47.2046360  75.3756340  58.7063150  48.5131020  74.6343700
  62.2758170  49.1313040  70.0951600  62.0349530  49.3987600  69.2082120
  63.2160810  49.3018770  70.1502460  64.4812590  35.5945730  73.8508110
  64.4201480  36.1867560  74.6003520  65.4212970  35.4871690  73.7058370
  67.1187150  35.2515790  73.4900400  67.7327560  35.5695080  72.8281480
  67.6636710  34.7664380  74.1096260  73.5362330  51.1507420  70.8962240
  73.0420610  51.5476290  70.1789370  72.9275620  50.5256630  71.2899520
  57.6408410  33.9310050  73.6039460  58.1891400  33.7498100  72.8405570
  57.7063720  33.1404160  74.1395770  58.4140170  50.5215700  71.6139660
  57.8200490  50.3900400  72.3529700  58.4064010  49.6853840  71.1481760
  67.8595190  33.8147930  69.8169690  66.9855030  34.1483040  69.6142620
  67.7505940  33.3421110  70.6421560  68.7667170  36.0218800  71.2011410
  68.4380530  35.2070560  70.8213140  69.7149470  35.9788610  71.0777100
  71.2201780  51.7930840  68.1748980  70.7604750  52.5446650  67.8007000
  70.5914240  51.0737310  68.1163780  58.0452400  47.8874080  70.5647700
  57.3186460  47.2679370  70.4973650  58.1061550  48.2814690  69.6945780
  61.6497500  50.1019080  67.3497110  62.1662520  49.4906440  66.8245370
  62.2994880  50.6047860  67.8408120  64.3893000  50.9927570  68.1766090
  64.6770810  50.7381870  67.2999100  64.9016220  50.4404930  68.7671660
  65.6070010  34.7317770  68.7562600  64.8241800  35.2063270  69.0359360
  65.3132940  33.8272600  68.6475780  70.1591080  35.4340870  66.8011690
  70.5999170  35.3785970  65.9533290  69.8898670  36.3498880  66.8721870
  72.0229650  35.0656110  64.8120510  71.9618050  34.1217330  64.6651530
  72.8021680  35.1736200  65.3573970  63.4924230  37.1504520  64.2678630
  62.6798740  36.7761410  63.9274510  63.9965870  36.3949600  64.5699820
  67.9949210  33.8146970  65.5061700  68.5978580  34.3867180  65.9810220
  67.2542200  34.3786410  65.2835600  71.1383810  34.2168530  60.7801980
  71.3334440  35.1151980  61.0469410  70.3513680  33.9855610  61.2734930
  59.3235570  35.5629300  59.8178290  59.8528330  34.7759100  59.6886240
  59.9563890  36.2420490  60.0513820  61.5173410  35.3004440  62.8723680
  60.8876150  34.5991750  63.0393810  60.9778550  36.0608570  62.6556840
  64.4565360  51.9143670  75.5434290  65.3832670  51.6787940  75.5870250
  64.4415790  52.7415670  75.0620320  72.6910420  51.4569240  62.5408540
  72.8662610  50.7706980  61.8969460  71.9931990  51.9816290  62.1485210
  61.6428970  34.5788420  75.3076170  61.3613240  35.0822020  74.5436990
  62.0248670  33.7810170  74.9418300  68.2444430  33.9942000  75.8856640
  68.1309880  34.3136610  76.7808160  69.0614170  34.3954510  75.5893920
  71.0242920  51.1413530  75.3675330  71.8168240  50.6462760  75.1601290
  71.3176070  51.8203670  75.9750940  64.7229610  46.4670680  48.1370810
  64.6537890  45.5260620  47.9759940  65.4849470  46.5572090  48.7093380
  73.8258450  38.7858250  51.8611710  73.1210620  39.1739960  51.3426820
  74.0916370  39.4808540  52.4632640  71.3883160  48.3267010  50.3323100
  70.7046680  48.9966120  50.3239770  71.9277450  48.5247660  49.5667960
  72.8407300  38.1546670  48.4604830  71.8932210  38.1885650  48.5920260
  73.1657290  38.9685620  48.8454190  68.3227340  45.0740980  50.3750890
  68.7396130  44.8601090  49.5404350  69.0467160  45.3313770  50.9459510
  72.2689440  43.4728200  50.4667130  71.4408070  43.5421290  49.9917260
  72.8639920  44.0582510  49.9982960  60.9264370  46.4706670  55.0887680
  60.0292900  46.6946640  55.3361080  60.9517240  46.5941610  54.1399080
  61.5515940  49.2841690  55.8730200  61.5231370  49.6884640  55.0058630
  61.3880910  48.3552050  55.7101800  73.5030760  50.0668790  57.1694370
  73.9790480  50.5451680  57.8483450  74.1237920  49.9986280  56.4439870
  72.9064010  47.2581640  54.3294380  73.0327070  47.0193520  53.4111560
  72.9485390  46.4266180  54.8016460  72.7588020  39.3114100  55.2944120
  72.1432290  39.8193770  54.7659580  72.4384440  38.4112430  55.2370060
  64.8202340  38.1505990  52.7606310  64.3581710  38.3589010  53.5726250
  64.4180450  37.3365340  52.4576980  69.8206850  39.3714940  53.8902970
  68.9700440  39.0720690  54.2112040  69.6608640  39.6156950  52.9786790
  66.9156560  40.8716690  55.9901760  67.2409970  40.0380440  55.6503990
  67.7036890  41.3945210  56.1380090  62.7645960  41.3056620  55.5512510
  62.6689560  40.3651350  55.4012910  63.6077940  41.5271690  55.1560580
  64.4701550  37.8005260  56.7743030  63.7799870  37.6077460  57.4089120
  65.2133850  38.0839900  57.3067330  70.6361180  34.5069560  54.8606270
  70.9606950  33.7759220  55.3864250  70.6717690  34.1883200  53.9587260
  65.9437820  44.6903730  54.3561300  65.8775130  43.7699400  54.1018890
  65.3142960  44.7879170  55.0705940  60.5326100  42.7155300  56.1109970
  60.2326240  42.8612480  55.2137790  61.3037340  42.1560590  56.0183360
  65.8754550  47.5124300  54.1065100  65.8899090  46.5805260  53.8884010
  65.1679650  47.5984060  54.7454870  72.0865760  44.1531640  53.4533680
  71.3613950  44.7460420  53.2563070  72.6141220  44.1455180  52.6547050
  65.3088450  49.1541870  51.2005600  65.9530670  49.3601250  51.8779020
  65.6717890  48.3930270  50.7476450  66.5820530  47.1574220  49.9183050
  67.2242760  46.4567380  50.0315220  67.1069880  47.9372660  49.7379940
  68.3558150  47.9569120  53.1219110  68.6914390  48.5435810  53.7997030
  67.4358490  47.8261830  53.3516900  64.1846730  48.0060450  56.2907170
  63.8643600  47.2869690  56.8352860  63.5105090  48.6815520  56.3643230
  71.5669180  37.1094160  52.7210330  71.0642780  37.8499560  53.0604140
  72.3825840  37.4978160  52.4047120  67.1757210  46.9093340  56.6504070
  66.5695370  46.9324940  55.9099820  66.8711320  46.1776380  57.1871320
  68.6057580  50.6373630  55.2613480  69.5579330  50.5531650  55.2113720
  68.4585800  51.3015340  55.9347270  63.1128330  44.6957920  55.1800230
  62.3474000  45.2642920  55.0954900  63.2944290  44.4034130  54.2868460
  70.2551680  46.4263250  55.7375250  70.9961150  46.7639010  55.2342710
  69.4924360  46.5955310  55.1845020  58.0913470  41.4316520  56.5414780
  58.1318810  41.1330390  57.4500010  58.9458970  41.8324130  56.3822300
  60.0319280  40.0108620  54.5089270  59.5015740  39.5199570  53.8812610
  60.7007350  40.4392820  53.9747200  68.9297340  44.4778080  54.2730460
  69.3438360  44.6323160  55.1220880  67.9948340  44.6033300  54.4356240
  69.4019510  41.8174240  56.2769610  69.9840280  41.0626560  56.1890090
  69.5781280  42.3481680  55.5001090  63.6912570  44.4298560  52.2426390
  64.1100680  45.2731290  52.0702630  62.7721200  44.5670600  52.0133170
  66.0276470  42.1614740  53.6264230  66.1472680  41.5655880  54.3659070
  66.8870470  42.1984430  53.2065530  68.3664370  42.7151930  52.2026740
  67.8399590  43.2394550  51.5991880  68.7095710  43.3479320  52.8336470
  61.5419990  50.7351570  53.3584120  61.0041080  51.4597630  53.0392820
  61.7953950  50.2581910  52.5681460  62.7945240  38.7036090  54.8840050
  63.3844930  38.3951940  55.5717870  61.9765480  38.2315840  55.0399950
  67.6138670  38.3201900  55.1173070  66.9254190  37.6583440  55.0523060
  68.3344690  37.8740170  55.5621530  71.9261880  49.6664960  53.9463330
  71.3263870  49.7257520  53.2027250  72.0555780  48.7269940  54.0760180
  73.6279760  45.0080360  46.6309170  73.9988590  44.2247680  46.2245140
  74.2681690  45.6969460  46.4526470  70.6113520  46.3916940  52.0439490
  69.7973360  46.8214100  52.3065280  71.0187720  47.0035350  51.4308540
  71.9603920  41.5305140  53.5708710  71.7290010  41.3017890  52.6706660
  72.2208470  42.4504690  53.5253600  70.3991990  36.7561570  56.3488410
  71.2762170  36.7644970  56.7322410  70.4112830  36.0192410  55.7380760
  72.0244980  40.6930980  50.7595980  71.0747690  40.6594520  50.8740970
  72.2057990  41.6031090  50.5245750  72.7642390  38.5025410  45.7106520
  72.6541670  38.3481450  46.6488790  73.5249980  37.9746350  45.4681930
  71.1108110  34.4419540  52.1689520  71.7480330  35.0553680  52.5348710
  71.2583000  34.4780200  51.2238750  58.5752140  47.5753450  55.7198390
  58.5321770  47.2046360  56.6012850  58.7063150  48.5131020  55.8600210
  62.2758170  49.1313040  51.3208110  62.0349530  49.3987600  50.4338630
  63.2160810  49.3018770  51.3758970  64.4812590  35.5945730  55.0764620
  64.4201480  36.1867560  55.8260030  65.4212970  35.4871690  54.9314880
  67.1187150  35.2515790  54.7156910  67.7327560  35.5695080  54.0537990
  67.6636710  34.7664380  55.3352770  73.5362330  51.1507420  52.1218750
  73.0420610  51.5476290  51.4045880  72.9275620  50.5256630  52.5156030
  64.3893000  50.9927570  49.4022600  64.6770810  50.7381870  48.5255610
  64.9016220  50.4404930  49.9928170  68.2444430  33.9942000  57.1113150
  68.1309880  34.3136610  58.0064670  69.0614170  34.3954510  56.8150430
  71.0242920  51.1413530  56.5931840  71.8168240  50.6462760  56.3857800
  71.3176070  51.8203670  57.2007450  73.8258450  38.7858250  33.0868220
  73.1210620  39.1739960  32.5683330  74.0916370  39.4808540  33.6889150
  72.8407300  38.1546670  29.6861340  71.8932210  38.1885650  29.8176770
  73.1657290  38.9685620  30.0710700  71.5486730  34.5742600  20.5426490
  71.2359390  34.6669430  21.4425560  72.3099200  35.1523630  20.4923920
  63.6491350  34.9048170  23.2633330  63.0245530  34.9008040  23.9886640
  63.5621470  34.0379130  22.8669300  70.6361180  34.5069560  36.0862780
  70.9606950  33.7759220  36.6120760  70.6717690  34.1883200  35.1843770
  71.5669180  37.1094160  33.9466840  71.0642780  37.8499560  34.2860650
  72.3825840  37.4978160  33.6303630  68.2439070  34.9153530  22.4019840
  68.5241360  34.0721430  22.7579260  67.4704800  35.1476640  22.9158590
  59.5633560  37.2045920  19.8610840  59.8659460  37.2113350  18.9529990
  60.3028150  36.8543780  20.3578500  62.7818490  36.1480540  20.8467040
  62.4340490  35.4704530  20.2669490  62.9831260  35.6870050  21.6610430
  73.1663330  47.4082780  20.5089550  72.3356290  47.4759430  20.9796780
  73.3435160  48.2986900  20.2056410  72.6738960  44.4464630  20.1696270
  72.9487800  45.3543510  20.0415490  72.4849700  44.3827160  21.1058260
  57.8789420  38.9432660  21.0951120  58.5881120  38.5215880  20.6098400
  57.1629360  39.0107890  20.4634470  72.7642390  38.5025410  26.9363030
  72.6541670  38.3481450  27.8745300  73.5249980  37.9746350  26.6938440
  73.6532660  36.3333330  20.1769170  74.5781970  36.2014510  19.9687460
  73.6308450  36.4126150  21.1305620  73.7271150  37.1043990  22.8025880
  72.9322650  37.0389110  23.3318790  73.9314430  38.0394630  22.7911230
  72.0229650  35.0656110  27.2633530  71.9618050  34.1217330  27.1164550
  72.8021680  35.1736200  27.8086990  71.1383810  34.2168530  23.2315000
  71.3334440  35.1151980  23.4982430  70.3513680  33.9855610  23.7247950
  59.3235570  35.5629300  22.2691310  59.8528330  34.7759100  22.1399260
  59.9563890  36.2420490  22.5026840  67.1502580  42.0134470   8.7004400
  67.0696630  41.0989080   8.4296110  66.7367000  42.5101540   7.9944110
  65.2820620  43.7913490  10.5813670  64.5062720  43.3113930  10.8712240
  65.9333550  43.1119140  10.4069830  59.2986450  44.1033300  11.4589430
  58.4671330  43.8482010  11.8585940  59.9067430  44.1744070  12.1947350
  69.3028050  48.1973680   9.3612800  68.8409580  47.4260920   9.6899970
  70.1153600  48.2239750   9.8665250  59.2787710  48.1373390  11.6547450
  59.5815750  47.2471130  11.4757670  60.0231300  48.6943610  11.4269700
  57.7078400  39.0635190   5.2431820  56.8195100  39.4051160   5.1411700
  57.9919590  38.8635510   4.3512650  55.6711410  41.6640840  11.1271520
  56.2427520  40.8963040  11.1275160  55.6712950  41.9629600  10.2178130
  65.5291360  50.4831690   8.9816790  64.9102800  50.9389190   8.4111230
  66.3843140  50.6383150   8.5806490  64.7229610  46.4670680  10.5883830
  64.6537890  45.5260620  10.4272960  65.4849470  46.5572090  11.1606400
  56.9136280  37.0725200  12.9140450  56.7339120  36.1750950  13.1943210
  56.5116360  37.6197070  13.5887400  65.7534780  39.2741060  10.8152760
  66.1299600  38.4012940  10.7026430  65.6554290  39.6099760   9.9243200
  59.8839790  37.6466690   6.2770200  59.9906540  38.5470420   6.5838960
  58.9732150  37.5984660   5.9864850  69.5358900  36.7691500   7.7481100
  70.3568520  36.2788070   7.7906580  69.5692980  37.3589160   8.5012940
  57.5322950  39.5685700  11.5222790  58.2133060  39.8324070  12.1410190
  57.2171000  38.7286570  11.8560800  61.7247520  40.6153060  10.6095380
  62.2325740  41.1134030  11.2500400  62.2560760  39.8388260  10.4334740
  73.8258450  38.7858250  14.3124730  73.1210620  39.1739960  13.7939840
  74.0916370  39.4808540  14.9145660  60.0083620  35.2551620  14.8758800
  60.0102060  35.7724010  14.0704700  59.1787930  34.7781800  14.8528730
  66.3954710  45.3670930   6.3748700  65.7771980  45.8320380   5.8111420
  66.9077960  46.0598410   6.7918210  61.2586470  44.8946800  13.0532300
  60.9255850  45.5215720  13.6953370  61.4353150  45.4208680  12.2733970
  69.7720380  38.7091880  10.5208640  69.0675950  38.9976770  11.1011750
  70.1332540  39.5191990  10.1608200  59.6898950  36.9661580  12.8829250
  60.0315760  37.8103630  12.5883120  58.7514760  37.1145320  12.9994590
  60.4705570  46.8627600  14.8681480  61.0879570  47.5378680  14.5865930
  59.6098690  47.2715580  14.7768980  55.7637910  46.0527460   3.7488330
  55.3865890  46.5414560   3.0173230  56.0210980  46.7252740   4.3794860
  71.3883160  48.3267010  12.7836120  70.7046680  48.9966120  12.7752790
  71.9277450  48.5247660  12.0180980  72.8407300  38.1546670  10.9117850
  71.8932210  38.1885650  11.0433280  73.1657290  38.9685620  11.2967210
  63.3726840  34.4543850   9.2073840  63.6801820  33.8990740   8.4909340
  62.4427540  34.5888310   9.0246830  68.9241900  50.1711140  11.4981300
  68.9369060  49.7673430  10.6303560  68.3717120  50.9458430  11.3942730
  70.2187320  46.8927360   6.5871470  70.1083650  45.9501690   6.7120890
  70.2155570  47.2543000   7.4734230  68.3227340  45.0740980  12.8263910
  68.7396130  44.8601090  11.9917370  69.0467160  45.3313770  13.3972530
  65.7607600  42.5192680   5.9433960  64.8336880  42.4530060   6.1722430
  65.9132420  43.4572810   5.8289200  65.7476680  38.7909680   2.9401120
  64.8080350  38.9523640   3.0253580  66.0659940  39.5095360   2.3937110
  72.2689440  43.4728200  12.9180150  71.4408070  43.5421290  12.4430280
  72.8639920  44.0582510  12.4495980  69.7904890  44.0812980   6.4469210
  69.1717310  43.7432530   5.7995510  69.7729340  43.4372740   7.1548400
  69.2331450  40.2597520  13.8635020  68.8202630  41.0851230  14.1175010
  68.5007400  39.6742560  13.6711380  61.3664240  43.0457420   8.7253690
  60.9621240  42.3334670   8.2299590  61.4527360  42.7010660   9.6141730
  61.8345940  46.7324980  10.8892900  61.5374230  46.1270450  10.2100680
  62.7845760  46.7702290  10.7782260  60.0792860  39.8200630  12.5052730
  60.6307450  39.9295970  11.7305980  60.5936370  40.1938230  13.2207960
  69.9231550  50.3056850  14.5516000  69.4462110  51.1129040  14.3588610
  69.2393340  49.6535180  14.7042210  60.9264370  46.4706670  17.5400700
  60.0292900  46.6946640  17.7874100  60.9517240  46.5941610  16.5912100
  67.9669590  43.3199790   3.4541960  68.4062870  42.4822220   3.3079780
  68.6798010  43.9529190   3.5406100  66.0764970  48.2595860   7.4223200
  66.5160880  49.0020190   7.0078590  66.0151860  48.5022430   8.3462160
  71.5486730  34.5742600   1.7683000  71.2359390  34.6669430   2.6682070
  72.3099200  35.1523630   1.7180430  58.0668870  41.9402400   6.2260340
  57.9466470  42.6664490   5.6141610  57.7569760  41.1705310   5.7488250
  55.7054240  45.1117540  12.0328980  55.7834660  45.2466310  11.0884700
  56.3195920  44.4033430  12.2257100  56.9501870  46.8117730   8.4435160
  56.5429950  46.9532320   7.5888760  57.8414880  46.5277890   8.2406370
  72.9064010  47.2581640  16.7807400  73.0327070  47.0193520  15.8624580
  72.9485390  46.4266180  17.2529480  68.7435150  51.2464980   4.7786210
  68.5836290  50.9567920   5.6768040  68.5781860  50.4705110   4.2431440
  61.2223530  51.0263510   6.5557830  61.0466010  50.1099050   6.3425630
  60.3679270  51.3850800   6.7955630  68.4461280  48.7552540   3.3384210
  67.7526440  48.7529830   2.6786490  69.1884140  48.3311860   2.9078380
  68.0111210  50.3815250   7.4132700  68.4668160  49.6004630   7.7271320
  68.3503730  51.0922070   7.9573880  72.7588020  39.3114100  17.7457140
  72.1432290  39.8193770  17.2172600  72.4384440  38.4112430  17.6883080
  60.5332530  35.2837470   9.6084010  60.0900680  36.0647010   9.2768530
  61.0917520  35.6067360  10.3154950  64.8202340  38.1505990  15.2119330
  64.3581710  38.3589010  16.0239270  64.4180450  37.3365340  14.9090000
  69.8206850  39.3714940  16.3415990  68.9700440  39.0720690  16.6625060
  69.6608640  39.6156950  15.4299810  66.9156560  40.8716690  18.4414780
  67.2409970  40.0380440  18.1017010  67.7036890  41.3945210  18.5893110
  63.6491350  34.9048170   4.4889840  63.0245530  34.9008040   5.2143150
  63.5621470  34.0379130   4.0925810  62.5708430  35.8284800  11.4673610
  62.8680760  36.7347630  11.3865630  63.1193990  35.3403580  10.8533180
  60.3246750  40.4071040   7.3365260  60.0987670  40.1908210   8.2411880
  59.5439280  40.8399500   6.9911230  67.5544510  40.4134410   5.9355910
  66.9553400  41.1370210   5.7519530  68.1024120  40.3511190   5.1532360
  62.7645960  41.3056620  18.0025530  62.6689560  40.3651350  17.8525930
  63.6077940  41.5271690  17.6073600  66.1609380  39.0497950   7.9659190
  66.5538950  39.3670150   7.1527880  66.5226230  38.1709830   8.0803710
  57.8956500  37.7170290  16.1559310  57.5019890  38.5645500  16.3632090
  57.2074900  37.0796660  16.3467950  64.4701550  37.8005260  19.2256050
  63.7799870  37.6077460  19.8602140  65.2133850  38.0839900  19.7580350
  55.1973550  35.6398750  10.1889390  54.9086600  36.2101610  10.9014370
  55.9419310  35.1603200  10.5520620  66.7464520  41.6403700  12.0609970
  66.0145640  42.1490510  12.4100070  66.3488860  40.8233680  11.7598750
  63.1841910  38.3157900  10.4662460  63.1877970  37.8747850   9.6167000
  64.0793030  38.6375230  10.5734280  59.0344290  38.1984390   9.4256670
  58.6944340  38.6759620  10.1823720  58.2721610  37.7449510   9.0657770
  63.2462060  39.3169980   3.4569220  63.3674880  39.2756460   4.4055040
  62.8610570  40.1794130   3.3015950  67.2090430  37.0937380  11.4732910
  67.2263170  37.5446030  12.3174760  66.9606010  36.1943020  11.6866350
  62.2583560  41.6271120   2.8552520  61.6900460  41.1789370   2.2288430
  62.9672560  41.9863900   2.3217670  70.6361180  34.5069560  17.3119290
  70.9606950  33.7759220  17.8377270  70.6717690  34.1883200  16.4100280
  63.4849880  42.3759680  12.2127870  63.8520010  41.9018250  12.9589210
  63.2954940  43.2501250  12.5536210  56.3490370  37.1203370   8.3421340
  56.0637290  36.7559040   9.1799960  56.2869230  36.3883830   7.7284480
  61.2749250  41.4168320  14.5312080  60.9706320  42.2960300  14.7562440
  62.2295710  41.4768110  14.5669520  59.8031040  45.6229310   5.1278930
  59.0293300  45.0826930   4.9677650  60.5325670  45.1035920   4.7896690
  70.5619020  44.6194670  10.9205320  71.2818140  45.1149960  10.5301430
  70.3600840  43.9412560  10.2759190  66.0228960  36.0132630   5.0634710
  65.2093570  35.5145800   4.9880020  65.8290910  36.8530880   4.6471060
  65.9437820  44.6903730  16.8074320  65.8775130  43.7699400  16.5531910
  65.3142960  44.7879170  17.5218960  68.7377350  40.3852280   3.3596870
  69.6256970  40.6969510   3.1848210  68.7082440  39.5124530   2.9677450
  59.8468440  45.2909690   8.7657740  60.3647110  44.4877950   8.7114630
  59.3952460  45.2288830   9.6074570  64.7337940  46.5575970   4.0385040
  65.0753640  47.3018200   3.5428360  63.9050650  46.8707090   4.4009870
  65.8754550  47.5124300  16.5578120  65.8899090  46.5805260  16.3397030
  65.1679650  47.5984060  17.1967890  71.0091620  41.6964120   2.8276730
  70.9255340  42.1278340   1.9773170  71.7285810  42.1562470   3.2603550
  72.0865760  44.1531640  15.9046700  71.3613950  44.7460420  15.7076090
  72.6141220  44.1455180  15.1060070  72.0378870  48.5506380   5.5558860
  71.3955030  47.8962000   5.8302580  71.6509530  48.9561470   4.7799530
  67.6165350  45.8791810   9.4030550  67.9689170  45.2819940   8.7431920
  66.7327680  45.5536040   9.5738800  63.7028630  46.6389500   6.8100960
  64.3899760  47.1858710   7.1908550  62.9161050  47.1830230   6.8450570
  55.8421030  42.2562320   2.3018040  56.7115880  42.5387120   2.5853960
  55.3511350  43.0698190   2.1866850  63.0055840  43.6435530   6.4226320
  63.4618620  44.4540780   6.6486510  62.6544050  43.3258670   7.2544810
  65.3088450  49.1541870  13.6518620  65.9530670  49.3601250  14.3292040
  65.6717890  48.3930270  13.1989470  58.9067620  33.9873180   6.8948840
  58.7782250  33.9791080   7.8433760  58.0829640  34.3256270   6.5439850
  66.5820530  47.1574220  12.3696070  67.2242760  46.4567380  12.4828240
  67.1069880  47.9372660  12.1892960  68.3558150  47.9569120  15.5732130
  68.6914390  48.5435810  16.2510050  67.4358490  47.8261830  15.8029920
  56.2092280  51.4689700   2.8679670  56.5689920  52.0679040   2.2136940
  56.0684620  52.0149590   3.6414700  55.9061550  35.7464300  16.3555540
  55.1920070  35.9461220  16.9608150  56.3256590  34.9703870  16.7270340
  70.0092500  45.3594780   3.7549370  69.7214200  45.8207470   4.5427250
  70.8044670  44.8992550   4.0233590  64.1846730  48.0060450  18.7420190
  63.8643600  47.2869690  19.2865880  63.5105090  48.6815520  18.8156250
  62.2260900  48.8520900   3.6853340  62.2171000  49.5850590   3.0697850
  61.3059260  48.6052480   3.7780300  57.8267540  44.0735790   4.4300100
  57.2195490  44.8134690   4.4395400  58.3016890  44.1635150   3.6038300
  67.4000330  38.2386610  14.1056990  67.7681150  37.4181820  14.4336560
  66.5398530  38.2988500  14.5212640  70.7662360  37.1943550   4.9144550
  70.1375520  37.2989220   4.2002780  70.2714280  37.4140330   5.7038430
  62.7346390  39.4729500   6.3302430  62.0262540  39.9415840   6.7716040
  63.0190870  38.8151510   6.9647620  64.3602320  40.8926200  14.3294960
  64.8587570  41.3672020  14.9946810  64.5025270  39.9689720  14.5364990
  66.7661820  36.1980160   7.7698220  66.6429600  36.2166290   6.8207730
  67.7146380  36.2459100   7.8896620  63.8538610  51.4335460   7.0426200
  64.1080110  51.3956850   6.1205570  62.9051090  51.3068790   7.0354450
  60.9381410  37.7814580   3.7053140  61.7871940  38.2184730   3.6393330
  60.5712680  38.0934840   4.5325200  71.5669180  37.1094160  15.1723350
  71.0642780  37.8499560  15.5117160  72.3825840  37.4978160  14.8560140
  69.8591190  42.3527340   8.6184710  68.9181330  42.3677570   8.7932400
  70.1735260  41.5663300   9.0645010  58.5319590  41.4672010   2.8621560
  58.6123180  40.5199520   2.9738960  59.4239340  41.7978890   2.9682220
  71.8616770  49.5236190  10.2938970  71.9864190  50.3467360  10.7662780
  72.7282330  49.3126920   9.9463120  59.3334300  51.6167400   9.9656100
  60.0696780  51.0682860  10.2364670  59.7175220  52.4823410   9.8262090
  56.2179780  47.6840970   5.8397610  55.2919560  47.9262110   5.8303020
  56.6836210  48.5115230   5.7182360  71.4966780  50.0167840   3.2118410
  71.2108290  49.6032980   2.3972590  71.2986330  50.9455550   3.0918930
  63.1128330  44.6957920  17.6313250  62.3474000  45.2642920  17.5467920
  63.2944290  44.4034130  16.7381480  66.2016740  45.0721150   2.2566010
  65.6526840  45.5190450   2.9008750  66.8236000  44.5670400   2.7803680
  61.8691860  44.0312070   4.1531310  62.2908280  43.8651940   4.9962700
  61.9942700  43.2212300   3.6586450  68.9297340  44.4778080  16.7243480
  69.3438360  44.6323160  17.5733900  67.9948340  44.6033300  16.8869260
  69.4019510  41.8174240  18.7282630  69.9840280  41.0626560  18.6403110
  69.5781280  42.3481680  17.9514110  60.5191580  36.9770990  17.0399580
  60.4248450  36.3591740  16.3150450  59.9388970  37.7037280  16.8129490
  63.2853020  35.5344230  14.0726970  62.8370320  35.5568490  13.2272520
  62.6518220  35.1363250  14.6697270  63.6912570  44.4298560  14.6939410
  64.1100680  45.2731290  14.5215650  62.7721200  44.5670600  14.4646190
  66.0276470  42.1614740  16.0777250  66.1472680  41.5655880  16.8172090
  66.8870470  42.1984430  15.6578550  68.3664370  42.7151930  14.6539760
  67.8399590  43.2394550  14.0504900  68.7095710  43.3479320  15.2849490
  62.7945240  38.7036090  17.3353070  63.3844930  38.3951940  18.0230890
  61.9765480  38.2315840  17.4912970  67.6138670  38.3201900  17.5686090
  66.9254190  37.6583440  17.5036080  68.3344690  37.8740170  18.0134550
  68.2439070  34.9153530   3.6276350  68.5241360  34.0721430   3.9835770
  67.4704800  35.1476640   4.1415100  64.9467530  51.1361290   3.6910150
  65.8418320  51.4746260   3.7128910  64.9785160  50.4140700   3.0634430
  58.5863690  46.5088340   1.9197150  59.0238560  47.0518010   2.5754730
  59.0711420  45.6835290   1.9293490  55.8009490  49.2977370   9.3717410
  56.1312500  48.4298430   9.1396050  56.2300490  49.5035890  10.2022370
  60.3971410  47.6286380   7.0319380  60.0966950  47.5051350   7.9323290
  60.2908900  46.7694970   6.6235110  56.2899700  50.1647960  12.1099040
  55.8530690  50.3448760  12.9423190  56.8577380  50.9222580  11.9680760
  71.9261880  49.6664960  16.3976350  71.3263870  49.7257520  15.6540270
  72.0555780  48.7269940  16.5273200  72.6219790  44.1530260   4.2380260
  73.3838700  44.7226910   4.3439950  72.6374160  43.5857460   5.0088570
  56.1224130  42.6768190   8.4687920  55.4672970  42.4079830   7.8247620
  56.9602080  42.5672670   8.0189900  73.6279760  45.0080360   9.0822190
  73.9988590  44.2247680   8.6758160  74.2681690  45.6969460   8.9039490
  70.6113520  46.3916940  14.4952510  69.7973360  46.8214100  14.7578300
  71.0187720  47.0035350  13.8821560  69.0714570  37.4709480   2.6906410
  69.4899450  37.2840460   1.8503070  68.7650630  36.6188530   3.0009340
  72.5704300  42.3833620   6.3882210  72.1947900  41.6161550   5.9563500
  71.8407420  42.7656320   6.8757140  57.1600060  43.0620760  13.0091260
  57.5273100  42.9748160  13.8887280  56.5910880  42.2987310  12.9098120
  71.9603920  41.5305140  16.0221730  71.7290010  41.3017890  15.1219680
  72.2208470  42.4504690  15.9766620  56.7116060  39.9729850  16.9149680
  55.8172110  39.9396610  17.2543390  57.2513610  40.1716640  17.6800930
  70.3991990  36.7561570  18.8001430  71.2762170  36.7644970  19.1835430
  70.4112830  36.0192410  18.1893780  55.3362210  39.8867120   4.4113250
  54.4326290  40.1497320   4.2364910  55.8202830  40.1578290   3.6313210
  71.8455260  40.6091110   9.6889450  72.3692740  40.1153760   9.0579620
  72.4314680  40.7441470  10.4337020  72.0244980  40.6930980  13.2109000
  71.0747690  40.6594520  13.3253990  72.2057990  41.6031090  12.9758770
  57.8789420  38.9432660   2.3207630  58.5881120  38.5215880   1.8354910
  57.1629360  39.0107890   1.6890980  71.3355230  39.8664460   5.6281860
  71.8314350  39.6335330   6.4130740  71.1371300  39.0276300   5.2119500
  57.2155770  34.2478180  11.2632900  57.8631960  33.6975560  10.8228060
  57.6357610  34.5021330  12.0848710  72.7642390  38.5025410   8.1619540
  72.6541670  38.3481450   9.1001810  73.5249980  37.9746350   7.9194950
  71.1108110  34.4419540  14.6202540  71.7480330  35.0553680  14.9861730
  71.2583000  34.4780200  13.6751770  73.7271150  37.1043990   4.0282390
  72.9322650  37.0389110   4.5575300  73.9314430  38.0394630   4.0167740
  70.6689570  51.1435540   8.0220780  71.2648640  50.8220110   7.3455200
  70.9267720  50.6707360   8.8134050  56.9687770  34.4033850  14.0058220
  56.6202590  34.8597670  14.7716400  56.6375470  33.5090980  14.0880650
  62.2758170  49.1313040  13.7721130  62.0349530  49.3987600  12.8851650
  63.2160810  49.3018770  13.8271990  64.4812590  35.5945730  17.5277640
  64.4201480  36.1867560  18.2773050  65.4212970  35.4871690  17.3827900
  67.1187150  35.2515790  17.1669930  67.7327560  35.5695080  16.5051010
  67.6636710  34.7664380  17.7865790  73.5362330  51.1507420  14.5731770
  73.0420610  51.5476290  13.8558900  72.9275620  50.5256630  14.9669050
  57.6408410  33.9310050  17.2808990  58.1891400  33.7498100  16.5175100
  57.7063720  33.1404160  17.8165300  67.8595190  33.8147930  13.4939220
  66.9855030  34.1483040  13.2912150  67.7505940  33.3421110  14.3191090
  68.7667170  36.0218800  14.8780940  68.4380530  35.2070560  14.4982670
  69.7149470  35.9788610  14.7546630  71.2201780  51.7930840  11.8518510
  70.7604750  52.5446650  11.4776530  70.5914240  51.0737310  11.7933310
  61.6497500  50.1019080  11.0266640  62.1662520  49.4906440  10.5014900
  62.2994880  50.6047860  11.5177650  64.3893000  50.9927570  11.8535620
  64.6770810  50.7381870  10.9768630  64.9016220  50.4404930  12.4441190
  65.6070010  34.7317770  12.4332130  64.8241800  35.2063270  12.7128890
  65.3132940  33.8272600  12.3245310  70.1591080  35.4340870  10.4781220
  70.5999170  35.3785970   9.6302820  69.8898670  36.3498880  10.5491400
  72.0229650  35.0656110   8.4890040  71.9618050  34.1217330   8.3421060
  72.8021680  35.1736200   9.0343500  56.3282400  51.2048470   7.4513990
  56.1604440  50.5719150   8.1495880  55.4616910  51.4107870   7.1008180
  56.9510420  35.0365250   4.9545850  57.7089780  35.1494130   4.3809880
  56.4887590  35.8734450   4.9089280  63.4924230  37.1504520   7.9448160
  62.6798740  36.7761410   7.6044040  63.9965870  36.3949600   8.2469350
  67.9949210  33.8146970   9.1831230  68.5978580  34.3867180   9.6579750
  67.2542200  34.3786410   8.9605130  71.1383810  34.2168530   4.4571510
  71.3334440  35.1151980   4.7238940  70.3513680  33.9855610   4.9504460
  57.9345100  49.8981700   4.8964130  57.4092720  50.2789730   4.1926090
  57.8589680  50.5232470   5.6173840  59.3235570  35.5629300   3.4947820
  59.8528330  34.7759100   3.3655770  59.9563890  36.2420490   3.7283350
  61.5173410  35.3004440   6.5493210  60.8876150  34.5991750   6.7163340
  60.9778550  36.0608570   6.3326370  72.6910420  51.4569240   6.2178070
  72.8662610  50.7706980   5.5738990  71.9931990  51.9816290   5.8254740
  61.6428970  34.5788420  18.9845700  61.3613240  35.0822020  18.2206520
  62.0248670  33.7810170  18.6187830  60.5338070  51.8464080   3.7713380
  61.2656890  51.5623360   3.2237270  60.7931740  51.6077360   4.6612760
  59.6952860  47.9628810   3.7759710  59.0661740  48.4313910   4.3245540
  59.8100690  47.1178030   4.2105900  68.2444430  33.9942000  19.5626170
  68.1309880  34.3136610  20.4577690  69.0614170  34.3954510  19.2663450
  67.1502580  23.2390980  83.7978360  67.0696630  22.3245590  83.5270070
  66.7367000  23.7358050  83.0918070  65.2820620  25.0170000  85.6787630
  64.5062720  24.5370440  85.9686200  65.9333550  24.3375650  85.5043790
  59.2986450  25.3289810  86.5563390  58.4671330  25.0738520  86.9559900
  59.9067430  25.4000580  87.2921310  69.3028050  29.4230190  84.4586760
  68.8409580  28.6517430  84.7873930  70.1153600  29.4496260  84.9639210
  59.2787710  29.3629900  86.7521410  59.5815750  28.4727640  86.5731630
  60.0231300  29.9200120  86.5243660  57.7078400  20.2891700  80.3405780
  56.8195100  20.6307670  80.2385660  57.9919590  20.0892020  79.4486610
  55.6711410  22.8897350  86.2245480  56.2427520  22.1219550  86.2249120
  55.6712950  23.1886110  85.3152090  65.5291360  31.7088200  84.0790750
  64.9102800  32.1645700  83.5085190  66.3843140  31.8639660  83.6780450
  64.7229610  27.6927190  85.6857790  64.6537890  26.7517130  85.5246920
  65.4849470  27.7828600  86.2580360  56.9136280  18.2981710  88.0114410
  56.7339120  17.4007460  88.2917170  56.5116360  18.8453580  88.6861360
  65.7534780  20.4997570  85.9126720  66.1299600  19.6269450  85.8000390
  65.6554290  20.8356270  85.0217160  59.8839790  18.8723200  81.3744160
  59.9906540  19.7726930  81.6812920  58.9732150  18.8241170  81.0838810
  69.5358900  17.9948010  82.8455060  70.3568520  17.5044580  82.8880540
  69.5692980  18.5845670  83.5986900  57.5322950  20.7942210  86.6196750
  58.2133060  21.0580580  87.2384150  57.2171000  19.9543080  86.9534760
  61.7247520  21.8409570  85.7069340  62.2325740  22.3390540  86.3474360
  62.2560760  21.0644770  85.5308700  73.8258450  20.0114760  89.4098690
  73.1210620  20.3996470  88.8913800  74.0916370  20.7065050  90.0119620
  60.0083620  16.4808130  89.9732760  60.0102060  16.9980520  89.1678660
  59.1787930  16.0038310  89.9502690  66.3954710  26.5927440  81.4722660
  65.7771980  27.0576890  80.9085380  66.9077960  27.2854920  81.8892170
  61.2586470  26.1203310  88.1506260  60.9255850  26.7472230  88.7927330
  61.4353150  26.6465190  87.3707930  69.7720380  19.9348390  85.6182600
  69.0675950  20.2233280  86.1985710  70.1332540  20.7448500  85.2582160
  59.6898950  18.1918090  87.9803210  60.0315760  19.0360140  87.6857080
  58.7514760  18.3401830  88.0968550  60.4705570  28.0884110  89.9655440
  61.0879570  28.7635190  89.6839890  59.6098690  28.4972090  89.8742940
  55.7637910  27.2783970  78.8462290  55.3865890  27.7671070  78.1147190
  56.0210980  27.9509250  79.4768820  71.3883160  29.5523520  87.8810080
  70.7046680  30.2222630  87.8726750  71.9277450  29.7504170  87.1154940
  72.8407300  19.3803180  86.0091810  71.8932210  19.4142160  86.1407240
  73.1657290  20.1942130  86.3941170  63.3726840  15.6800360  84.3047800
  63.6801820  15.1247250  83.5883300  62.4427540  15.8144820  84.1220790
  68.9241900  31.3967650  86.5955260  68.9369060  30.9929940  85.7277520
  68.3717120  32.1714940  86.4916690  70.2187320  28.1183870  81.6845430
  70.1083650  27.1758200  81.8094850  70.2155570  28.4799510  82.5708190
  68.3227340  26.2997490  87.9237870  68.7396130  26.0857600  87.0891330
  69.0467160  26.5570280  88.4946490  65.7607600  23.7449190  81.0407920
  64.8336880  23.6786570  81.2696390  65.9132420  24.6829320  80.9263160
  65.7476680  20.0166190  78.0375080  64.8080350  20.1780150  78.1227540
  66.0659940  20.7351870  77.4911070  72.2689440  24.6984710  88.0154110
  71.4408070  24.7677800  87.5404240  72.8639920  25.2839020  87.5469940
  69.7904890  25.3069490  81.5443170  69.1717310  24.9689040  80.8969470
  69.7729340  24.6629250  82.2522360  69.2331450  21.4854030  88.9608980
  68.8202630  22.3107740  89.2148970  68.5007400  20.8999070  88.7685340
  61.3664240  24.2713930  83.8227650  60.9621240  23.5591180  83.3273550
  61.4527360  23.9267170  84.7115690  61.8345940  27.9581490  85.9866860
  61.5374230  27.3526960  85.3074640  62.7845760  27.9958800  85.8756220
  60.0792860  21.0457140  87.6026690  60.6307450  21.1552480  86.8279940
  60.5936370  21.4194740  88.3181920  69.9231550  31.5313360  89.6489960
  69.4462110  32.3385550  89.4562570  69.2393340  30.8791690  89.8016170
  60.9264370  27.6963180  92.6374660  60.0292900  27.9203150  92.8848060
  60.9517240  27.8198120  91.6886060  67.9669590  24.5456300  78.5515920
  68.4062870  23.7078730  78.4053740  68.6798010  25.1785700  78.6380060
  59.7535590  24.5676500  91.2132030  59.6143360  25.4399300  91.5819430
  58.8716950  24.2249310  91.0679970  66.0764970  29.4852370  82.5197160
  66.5160880  30.2276700  82.1052550  66.0151860  29.7278940  83.4436120
  61.5515940  30.5098200  93.4217180  61.5231370  30.9141150  92.5545610
  61.3880910  29.5808560  93.2588780  71.5486730  15.7999110  76.8656960
  71.2359390  15.8925940  77.7656030  72.3099200  16.3780140  76.8154390
  58.0668870  23.1658910  81.3234300  57.9466470  23.8921000  80.7115570
  57.7569760  22.3961820  80.8462210  55.7054240  26.3374050  87.1302940
  55.7834660  26.4722820  86.1858660  56.3195920  25.6289940  87.3231060
  56.9501870  28.0374240  83.5409120  56.5429950  28.1788830  82.6862720
  57.8414880  27.7534400  83.3380330  72.9064010  28.4838150  91.8781360
  73.0327070  28.2450030  90.9598540  72.9485390  27.6522690  92.3503440
  66.7680750  32.1866150  90.4476170  67.2825420  32.0974160  91.2498600
  65.9249830  32.5325850  90.7404080  68.7435150  32.4721490  79.8760170
  68.5836290  32.1824430  80.7742000  68.5781860  31.6961620  79.3405400
  61.2223530  32.2520020  81.6531790  61.0466010  31.3355560  81.4399590
  60.3679270  32.6107310  81.8929590  68.4461280  29.9809050  78.4358170
  67.7526440  29.9786340  77.7760450  69.1884140  29.5568370  78.0052340
  68.0111210  31.6071760  82.5106660  68.4668160  30.8261140  82.8245280
  68.3503730  32.3178580  83.0547840  72.7588020  20.5370610  92.8431100
  72.1432290  21.0450280  92.3146560  72.4384440  19.6368940  92.7857040
  55.7613760  27.3788220  89.6697400  55.9244800  26.9093580  88.8516770
  56.2266210  26.8711780  90.3346240  60.5332530  16.5093980  84.7057970
  60.0900680  17.2903520  84.3742490  61.0917520  16.8323870  85.4128910
  64.8202340  19.3762500  90.3093290  64.3581710  19.5845520  91.1213230
  64.4180450  18.5621850  90.0063960  69.8206850  20.5971450  91.4389950
  68.9700440  20.2977200  91.7599020  69.6608640  20.8413460  90.5273770
  66.9156560  22.0973200  93.5388740  67.2409970  21.2636950  93.1990970
  67.7036890  22.6201720  93.6867070  63.6491350  16.1304680  79.5863800
  63.0245530  16.1264550  80.3117110  63.5621470  15.2635640  79.1899770
  62.5708430  17.0541310  86.5647570  62.8680760  17.9604140  86.4839590
  63.1193990  16.5660090  85.9507140  60.3246750  21.6327550  82.4339220
  60.0987670  21.4164720  83.3385840  59.5439280  22.0656010  82.0885190
  67.5544510  21.6390920  81.0329870  66.9553400  22.3626720  80.8493490
  68.1024120  21.5767700  80.2506320  62.7645960  22.5313130  93.0999490
  62.6689560  21.5907860  92.9499890  63.6077940  22.7528200  92.7047560
  66.1609380  20.2754460  83.0633150  66.5538950  20.5926660  82.2501840
  66.5226230  19.3966340  83.1777670  57.8956500  18.9426800  91.2533270
  57.5019890  19.7902010  91.4606050  57.2074900  18.3053170  91.4441910
  55.1973550  16.8655260  85.2863350  54.9086600  17.4358120  85.9988330
  55.9419310  16.3859710  85.6494580  55.3843780  20.8075380  76.4966070
  55.3018450  21.7506140  76.6381060  55.0326840  20.6650290  75.6178420
  66.7464520  22.8660210  87.1583930  66.0145640  23.3747020  87.5074030
  66.3488860  22.0490190  86.8572710  63.1841910  19.5414410  85.5636420
  63.1877970  19.1004360  84.7140960  64.0793030  19.8631740  85.6708240
  59.0344290  19.4240900  84.5230630  58.6944340  19.9016130  85.2797680
  58.2721610  18.9706020  84.1631730  63.2462060  20.5426490  78.5543180
  63.3674880  20.5012970  79.5029000  62.8610570  21.4050640  78.3989910
  67.2090430  18.3193890  86.5706870  67.2263170  18.7702540  87.4148720
  66.9606010  17.4199530  86.7840310  62.2583560  22.8527630  77.9526480
  61.6900460  22.4045880  77.3262390  62.9672560  23.2120410  77.4191630
  70.6361180  15.7326070  92.4093250  70.9606950  15.0015730  92.9351230
  70.6717690  15.4139710  91.5074240  57.3352740  26.7539650  91.8293210
  56.9507530  26.1133320  92.4276170  57.6464930  27.4575770  92.3987940
  63.4849880  23.6016190  87.3101830  63.8520010  23.1274760  88.0563170
  63.2954940  24.4757760  87.6510170  56.3490370  18.3459880  83.4395300
  56.0637290  17.9815550  84.2773920  56.2869230  17.6140340  82.8258440
  61.2749250  22.6424830  89.6286040  60.9706320  23.5216810  89.8536400
  62.2295710  22.7024620  89.6643480  59.8031040  26.8485820  80.2252890
  59.0293300  26.3083440  80.0651610  60.5325670  26.3292430  79.8870650
  70.5619020  25.8451180  86.0179280  71.2818140  26.3406470  85.6275390
  70.3600840  25.1669070  85.3733150  66.0228960  17.2389140  80.1608670
  65.2093570  16.7402310  80.0853980  65.8290910  18.0787390  79.7445020
  65.9437820  25.9160240  91.9048280  65.8775130  24.9955910  91.6505870
  65.3142960  26.0135680  92.6192920  68.7377350  21.6108790  78.4570830
  69.6256970  21.9226020  78.2822170  68.7082440  20.7381040  78.0651410
  59.8468440  26.5166200  83.8631700  60.3647110  25.7134460  83.8088590
  59.3952460  26.4545340  84.7048530  64.7337940  27.7832480  79.1359000
  65.0753640  28.5274710  78.6402320  63.9050650  28.0963600  79.4983830
  57.3312980  23.4827570  90.7757400  56.9727920  24.1481420  91.3630740
  57.0367540  22.6511120  91.1470020  60.5326100  23.9411810  93.6596950
  60.2326240  24.0868990  92.7624770  61.3037340  23.3817100  93.5670340
  65.8754550  28.7380810  91.6552080  65.8899090  27.8061770  91.4370990
  65.1679650  28.8240570  92.2941850  71.0091620  22.9220630  77.9250690
  70.9255340  23.3534850  77.0747130  71.7285810  23.3818980  78.3577510
  72.0865760  25.3788150  91.0020660  71.3613950  25.9716930  90.8050050
  72.6141220  25.3711690  90.2034030  72.0378870  29.7762890  80.6532820
  71.3955030  29.1218510  80.9276540  71.6509530  30.1817980  79.8773490
  67.6165350  27.1048320  84.5004510  67.9689170  26.5076450  83.8405880
  66.7327680  26.7792550  84.6712760  63.7028630  27.8646010  81.9074920
  64.3899760  28.4115220  82.2882510  62.9161050  28.4086740  81.9424530
  55.8421030  23.4818830  77.3992000  56.7115880  23.7643630  77.6827920
  55.3511350  24.2954700  77.2840810  63.0055840  24.8692040  81.5200280
  63.4618620  25.6797290  81.7460470  62.6544050  24.5515180  82.3518770
  65.3088450  30.3798380  88.7492580  65.9530670  30.5857760  89.4266000
  65.6717890  29.6186780  88.2963430  58.9067620  15.2129690  81.9922800
  58.7782250  15.2047590  82.9407720  58.0829640  15.5512780  81.6413810
  66.5820530  28.3830730  87.4670030  67.2242760  27.6823890  87.5802200
  67.1069880  29.1629170  87.2866920  70.4276250  28.6679350  77.1909170
  70.2013830  27.9509790  77.7833810  70.0372450  28.4191790  76.3530920
  68.3558150  29.1825630  90.6706090  68.6914390  29.7692320  91.3484010
  67.4358490  29.0518340  90.9003880  56.2092280  32.6946210  77.9653630
  56.5689920  33.2935550  77.3110900  56.0684620  33.2406100  78.7388660
  55.9061550  16.9720810  91.4529500  55.1920070  17.1717730  92.0582110
  56.3256590  16.1960380  91.8244300  70.0092500  26.5851290  78.8523330
  69.7214200  27.0463980  79.6401210  70.8044670  26.1249060  79.1207550
  56.1934140  30.9601070  92.4396030  56.3025260  30.0195810  92.2991420
  55.5414700  31.2255820  91.7909760  62.2260900  30.0777410  78.7827300
  62.2171000  30.8107100  78.1671810  61.3059260  29.8308990  78.8754260
  57.8267540  25.2992300  79.5274060  57.2195490  26.0391200  79.5369360
  58.3016890  25.3891660  78.7012260  67.4000330  19.4643120  89.2030950
  67.7681150  18.6438330  89.5310520  66.5398530  19.5245010  89.6186600
  70.7662360  18.4200060  80.0118510  70.1375520  18.5245730  79.2976740
  70.2714280  18.6396840  80.8012390  65.2120500  30.1405650  77.4452490
  65.3132480  29.9369640  76.5154470  64.3122240  29.8863930  77.6500270
  62.7346390  20.6986010  81.4276390  62.0262540  21.1672350  81.8690000
  63.0190870  20.0408020  82.0621580  64.3602320  22.1182710  89.4268920
  64.8587570  22.5928530  90.0920770  64.5025270  21.1946230  89.6338950
  66.7661820  17.4236670  82.8672180  66.6429600  17.4422800  81.9181690
  67.7146380  17.4715610  82.9870580  63.8538610  32.6591970  82.1400160
  64.1080110  32.6213360  81.2179530  62.9051090  32.5325300  82.1328410
  60.9381410  19.0071090  78.8027100  61.7871940  19.4441240  78.7367290
  60.5712680  19.3191350  79.6299160  71.5669180  18.3350670  90.2697310
  71.0642780  19.0756070  90.6091120  72.3825840  18.7234670  89.9534100
  69.8591190  23.5783850  83.7158670  68.9181330  23.5934080  83.8906360
  70.1735260  22.7919810  84.1618970  59.8372830  25.2603450  77.2762630
  60.6036100  25.1484810  77.8388060  59.9147520  24.5641420  76.6239400
  58.5319590  22.6928520  77.9595520  58.6123180  21.7456030  78.0712920
  59.4239340  23.0235400  78.0656180  71.8616770  30.7492700  85.3912930
  71.9864190  31.5723870  85.8636740  72.7282330  30.5383430  85.0437080
  59.3334300  32.8423910  85.0630060  60.0696780  32.2939370  85.3338630
  59.7175220  33.7079920  84.9236050  56.2179780  28.9097480  80.9371570
  55.2919560  29.1518620  80.9276980  56.6836210  29.7371740  80.8156320
  62.4436610  32.0154220  76.8855630  63.2365220  32.3043050  76.4337420
  61.9240960  31.5846390  76.2068110  68.6057580  31.8630140  92.8100460
  69.5579330  31.7788160  92.7600700  68.4585800  32.5271850  93.4834250
  71.4966780  31.2424350  78.3092370  71.2108290  30.8289490  77.4946550
  71.2986330  32.1712060  78.1892890  56.0590390  24.5143440  93.1951690
  56.5629410  23.9350720  93.7667920  55.3197810  24.7983670  93.7328060
  62.9614010  27.2357630  76.7497980  62.8564650  26.6209980  77.4759360
  62.7938230  26.7123520  75.9660990  63.1128330  25.9214430  92.7287210
  62.3474000  26.4899430  92.6441880  63.2944290  25.6290640  91.8355440
  66.2016740  26.2977660  77.3539970  65.6526840  26.7446960  77.9982710
  66.8236000  25.7926910  77.8777640  70.2551680  27.6519760  93.2862230
  70.9961150  27.9895520  92.7829690  69.4924360  27.8211820  92.7332000
  61.8691860  25.2568580  79.2505270  62.2908280  25.0908450  80.0936660
  61.9942700  24.4468810  78.7560410  60.0319280  21.2365130  92.0576250
  59.5015740  20.7456080  91.4299590  60.7007350  21.6649330  91.5234180
  64.3819500  24.2806190  76.4982370  64.9025160  23.5655210  76.1323520
  65.0287900  24.9192060  76.7982880  68.9297340  25.7034590  91.8217440
  69.3438360  25.8579670  92.6707860  67.9948340  25.8289810  91.9843220
  69.4019510  23.0430750  93.8256590  69.9840280  22.2883070  93.7377070
  69.5781280  23.5738190  93.0488070  60.5191580  18.2027500  92.1373540
  60.4248450  17.5848250  91.4124410  59.9388970  18.9293790  91.9103450
  63.2853020  16.7600740  89.1700930  62.8370320  16.7825000  88.3246480
  62.6518220  16.3619760  89.7671230  63.6912570  25.6555070  89.7913370
  64.1100680  26.4987800  89.6189610  62.7721200  25.7927110  89.5620150
  66.0276470  23.3871250  91.1751210  66.1472680  22.7912390  91.9146050
  66.8870470  23.4240940  90.7552510  68.3664370  23.9408440  89.7513720
  67.8399590  24.4651060  89.1478860  68.7095710  24.5735830  90.3823450
  60.7650760  21.3301810  76.1963430  60.5639820  20.4669170  76.5576770
  60.5942810  21.2435170  75.2585030  61.5419990  31.9608080  90.9071100
  61.0041080  32.6854140  90.5879800  61.7953950  31.4838420  90.1168440
  62.7945240  19.9292600  92.4327030  63.3844930  19.6208450  93.1204850
  61.9765480  19.4572350  92.5886930  67.6138670  19.5458410  92.6660050
  66.9254190  18.8839950  92.6010040  68.3344690  19.0996680  93.1108510
  68.2439070  16.1410040  78.7250310  68.5241360  15.2977940  79.0809730
  67.4704800  16.3733150  79.2389060  59.5633560  18.4302430  76.1841310
  59.8659460  18.4369860  75.2760460  60.3028150  18.0800290  76.6808970
  64.3982200  33.1959290  91.1657750  64.3240900  34.0994430  91.4730120
  63.4961040  32.8771190  91.1379820  62.7818490  17.3737050  77.1697510
  62.4340490  16.6961040  76.5899960  62.9831260  16.9126560  77.9840900
  64.9467530  32.3617800  78.7884110  65.8418320  32.7002770  78.8102870
  64.9785160  31.6397210  78.1608390  58.5863690  27.7344850  77.0171110
  59.0238560  28.2774520  77.6728690  59.0711420  26.9091800  77.0267450
  55.8009490  30.5233880  84.4691370  56.1312500  29.6554940  84.2370010
  56.2300490  30.7292400  85.2996330  60.3971410  28.8542890  82.1293340
  60.0966950  28.7307860  83.0297250  60.2908900  27.9951480  81.7209070
  56.2899700  31.3904470  87.2073000  55.8530690  31.5705270  88.0397150
  56.8577380  32.1479090  87.0654720  71.9261880  30.8921470  91.4950310
  71.3263870  30.9514030  90.7514230  72.0555780  29.9526450  91.6247160
  73.1663330  28.6339290  76.8320020  72.3356290  28.7015940  77.3027250
  73.3435160  29.5243410  76.5286880  72.6219790  25.3786770  79.3354220
  73.3838700  25.9483420  79.4413910  72.6374160  24.8113970  80.1062530
  56.1224130  23.9024700  83.5661880  55.4672970  23.6336340  82.9221580
  56.9602080  23.7929180  83.1163860  73.6279760  26.2336870  84.1796150
  73.9988590  25.4504190  83.7732120  74.2681690  26.9225970  84.0013450
  70.6113520  27.6173450  89.5926470  69.7973360  28.0470610  89.8552260
  71.0187720  28.2291860  88.9795520  72.6738960  25.6721140  76.4926740
  72.9487800  26.5800020  76.3645960  72.4849700  25.6083670  77.4288730
  69.0714570  18.6965990  77.7880370  69.4899450  18.5096970  76.9477030
  68.7650630  17.8445040  78.0983300  72.5704300  23.6090130  81.4856170
  72.1947900  22.8418060  81.0537460  71.8407420  23.9912830  81.9731100
  57.1600060  24.2877270  88.1065220  57.5273100  24.2004670  88.9861240
  56.5910880  23.5243820  88.0072080  71.9603920  22.7561650  91.1195690
  71.7290010  22.5274400  90.2193640  72.2208470  23.6761200  91.0740580
  56.7116060  21.1986360  92.0123640  55.8172110  21.1653120  92.3517350
  57.2513610  21.3973150  92.7774890  55.3362210  21.1123630  79.5087210
  54.4326290  21.3753830  79.3338870  55.8202830  21.3834800  78.7287170
  71.8455260  21.8347620  84.7863410  72.3692740  21.3410270  84.1553580
  72.4314680  21.9697980  85.5310980  72.0244980  21.9187490  88.3082960
  71.0747690  21.8851030  88.4227950  72.2057990  22.8287600  88.0732730
  57.8789420  20.1689170  77.4181590  58.5881120  19.7472390  76.9328870
  57.1629360  20.2364400  76.7864940  57.5263580  16.2228500  76.4584240
  58.2491710  16.7637440  76.7765460  57.7988100  15.9491920  75.5825780
  71.3355230  21.0920970  80.7255820  71.8314350  20.8591840  81.5104700
  71.1371300  20.2532810  80.3093460  57.2155770  15.4734690  86.3606860
  57.8631960  14.9232070  85.9202020  57.6357610  15.7277840  87.1822670
  72.7642390  19.7281920  83.2593500  72.6541670  19.5737960  84.1975770
  73.5249980  19.2002860  83.0168910  71.1108110  15.6676050  89.7176500
  71.7480330  16.2810190  90.0835690  71.2583000  15.7036710  88.7725730
  73.6532660  17.5589840  76.4999640  74.5781970  17.4271020  76.2917930
  73.6308450  17.6382660  77.4536090  73.7271150  18.3300500  79.1256350
  72.9322650  18.2645620  79.6549260  73.9314430  19.2651140  79.1141700
  70.6689570  32.3692050  83.1194740  71.2648640  32.0476620  82.4429160
  70.9267720  31.8963870  83.9108010  56.9687770  15.6290360  89.1032180
  56.6202590  16.0854180  89.8690360  56.6375470  14.7347490  89.1854610
  62.2758170  30.3569550  88.8695090  62.0349530  30.6244110  87.9825610
  63.2160810  30.5275280  88.9245950  64.4812590  16.8202240  92.6251600
  64.4201480  17.4124070  93.3747010  65.4212970  16.7128200  92.4801860
  67.1187150  16.4772300  92.2643890  67.7327560  16.7951590  91.6024970
  67.6636710  15.9920890  92.8839750  73.5362330  32.3763930  89.6705730
  73.0420610  32.7732800  88.9532860  72.9275620  31.7513140  90.0643010
  57.6408410  15.1566560  92.3782950  58.1891400  14.9754610  91.6149060
  57.7063720  14.3660670  92.9139260  58.4140170  31.7472210  90.3883150
  57.8200490  31.6156910  91.1273190  58.4064010  30.9110350  89.9225250
  67.8595190  15.0404440  88.5913180  66.9855030  15.3739550  88.3886110
  67.7505940  14.5677620  89.4165050  68.7667170  17.2475310  89.9754900
  68.4380530  16.4327070  89.5956630  69.7149470  17.2045120  89.8520590
  71.2201780  33.0187350  86.9492470  70.7604750  33.7703160  86.5750490
  70.5914240  32.2993820  86.8907270  58.0452400  29.1130590  89.3391190
  57.3186460  28.4935880  89.2717140  58.1061550  29.5071200  88.4689270
  61.6497500  31.3275590  86.1240600  62.1662520  30.7162950  85.5988860
  62.2994880  31.8304370  86.6151610  64.3893000  32.2184080  86.9509580
  64.6770810  31.9638380  86.0742590  64.9016220  31.6661440  87.5415150
  65.6070010  15.9574280  87.5306090  64.8241800  16.4319780  87.8102850
  65.3132940  15.0529110  87.4219270  70.1591080  16.6597380  85.5755180
  70.5999170  16.6042480  84.7276780  69.8898670  17.5755390  85.6465360
  72.0229650  16.2912620  83.5864000  71.9618050  15.3473840  83.4395020
  72.8021680  16.3992710  84.1317460  56.3282400  32.4304980  82.5487950
  56.1604440  31.7975660  83.2469840  55.4616910  32.6364380  82.1982140
  56.9510420  16.2621760  80.0519810  57.7089780  16.3750640  79.4783840
  56.4887590  17.0990960  80.0063240  63.4924230  18.3761030  83.0422120
  62.6798740  18.0017920  82.7018000  63.9965870  17.6206110  83.3443310
  67.9949210  15.0403480  84.2805190  68.5978580  15.6123690  84.7553710
  67.2542200  15.6042920  84.0579090  71.1383810  15.4425040  79.5545470
  71.3334440  16.3408490  79.8212900  70.3513680  15.2112120  80.0478420
  57.9345100  31.1238210  79.9938090  57.4092720  31.5046240  79.2900050
  57.8589680  31.7488980  80.7147800  59.3235570  16.7885810  78.5921780
  59.8528330  16.0015610  78.4629730  59.9563890  17.4677000  78.8257310
  61.5173410  16.5260950  81.6467170  60.8876150  15.8248260  81.8137300
  60.9778550  17.2865080  81.4300330  72.6910420  32.6825750  81.3152030
  72.8662610  31.9963490  80.6712950  71.9931990  33.2072800  80.9228700
  60.5338070  33.0720590  78.8687340  61.2656890  32.7879870  78.3211230
  60.7931740  32.8333870  79.7586720  59.6952860  29.1885320  78.8733670
  59.0661740  29.6570420  79.4219500  59.8100690  28.3434540  79.3079860
  67.1502580  23.2390980  65.0234870  67.0696630  22.3245590  64.7526580
  66.7367000  23.7358050  64.3174580  65.2820620  25.0170000  66.9044140
  64.5062720  24.5370440  67.1942710  65.9333550  24.3375650  66.7300300
  59.2986450  25.3289810  67.7819900  58.4671330  25.0738520  68.1816410
  59.9067430  25.4000580  68.5177820  69.3028050  29.4230190  65.6843270
  68.8409580  28.6517430  66.0130440  70.1153600  29.4496260  66.1895720
  59.2787710  29.3629900  67.9777920  59.5815750  28.4727640  67.7988140
  60.0231300  29.9200120  67.7500170  55.6711410  22.8897350  67.4501990
  56.2427520  22.1219550  67.4505630  55.6712950  23.1886110  66.5408600
  65.5291360  31.7088200  65.3047260  64.9102800  32.1645700  64.7341700
  66.3843140  31.8639660  64.9036960  64.7229610  27.6927190  66.9114300
  64.6537890  26.7517130  66.7503430  65.4849470  27.7828600  67.4836870
  56.9136280  18.2981710  69.2370920  56.7339120  17.4007460  69.5173680
  56.5116360  18.8453580  69.9117870  65.7534780  20.4997570  67.1383230
  66.1299600  19.6269450  67.0256900  65.6554290  20.8356270  66.2473670
  69.5358900  17.9948010  64.0711570  70.3568520  17.5044580  64.1137050
  69.5692980  18.5845670  64.8243410  57.5322950  20.7942210  67.8453260
  58.2133060  21.0580580  68.4640660  57.2171000  19.9543080  68.1791270
  61.7247520  21.8409570  66.9325850  62.2325740  22.3390540  67.5730870
  62.2560760  21.0644770  66.7565210  73.8258450  20.0114760  70.6355200
  73.1210620  20.3996470  70.1170310  74.0916370  20.7065050  71.2376130
  60.0083620  16.4808130  71.1989270  60.0102060  16.9980520  70.3935170
  59.1787930  16.0038310  71.1759200  66.3954710  26.5927440  62.6979170
  65.7771980  27.0576890  62.1341890  66.9077960  27.2854920  63.1148680
  61.2586470  26.1203310  69.3762770  60.9255850  26.7472230  70.0183840
  61.4353150  26.6465190  68.5964440  69.7720380  19.9348390  66.8439110
  69.0675950  20.2233280  67.4242220  70.1332540  20.7448500  66.4838670
  59.6898950  18.1918090  69.2059720  60.0315760  19.0360140  68.9113590
  58.7514760  18.3401830  69.3225060  60.4705570  28.0884110  71.1911950
  61.0879570  28.7635190  70.9096400  59.6098690  28.4972090  71.0999450
  71.3883160  29.5523520  69.1066590  70.7046680  30.2222630  69.0983260
  71.9277450  29.7504170  68.3411450  72.8407300  19.3803180  67.2348320
  71.8932210  19.4142160  67.3663750  73.1657290  20.1942130  67.6197680
  63.3726840  15.6800360  65.5304310  63.6801820  15.1247250  64.8139810
  62.4427540  15.8144820  65.3477300  68.9241900  31.3967650  67.8211770
  68.9369060  30.9929940  66.9534030  68.3717120  32.1714940  67.7173200
  70.2187320  28.1183870  62.9101940  70.1083650  27.1758200  63.0351360
  70.2155570  28.4799510  63.7964700  68.3227340  26.2997490  69.1494380
  68.7396130  26.0857600  68.3147840  69.0467160  26.5570280  69.7203000
  65.7607600  23.7449190  62.2664430  64.8336880  23.6786570  62.4952900
  65.9132420  24.6829320  62.1519670  65.7476680  20.0166190  59.2631590
  64.8080350  20.1780150  59.3484050  66.0659940  20.7351870  58.7167580
  72.2689440  24.6984710  69.2410620  71.4408070  24.7677800  68.7660750
  72.8639920  25.2839020  68.7726450  69.7904890  25.3069490  62.7699680
  69.1717310  24.9689040  62.1225980  69.7729340  24.6629250  63.4778870
  69.2331450  21.4854030  70.1865490  68.8202630  22.3107740  70.4405480
  68.5007400  20.8999070  69.9941850  61.3664240  24.2713930  65.0484160
  60.9621240  23.5591180  64.5530060  61.4527360  23.9267170  65.9372200
  61.8345940  27.9581490  67.2123370  61.5374230  27.3526960  66.5331150
  62.7845760  27.9958800  67.1012730  60.0792860  21.0457140  68.8283200
  60.6307450  21.1552480  68.0536450  60.5936370  21.4194740  69.5438430
  69.9231550  31.5313360  70.8746470  69.4462110  32.3385550  70.6819080
  69.2393340  30.8791690  71.0272680  60.9264370  27.6963180  73.8631170
  60.0292900  27.9203150  74.1104570  60.9517240  27.8198120  72.9142570
  67.9669590  24.5456300  59.7772430  68.4062870  23.7078730  59.6310250
  68.6798010  25.1785700  59.8636570  59.7535590  24.5676500  72.4388540
  59.6143360  25.4399300  72.8075940  58.8716950  24.2249310  72.2936480
  66.0764970  29.4852370  63.7453670  66.5160880  30.2276700  63.3309060
  66.0151860  29.7278940  64.6692630  61.5515940  30.5098200  74.6473690
  61.5231370  30.9141150  73.7802120  61.3880910  29.5808560  74.4845290
  71.5486730  15.7999110  58.0913470  71.2359390  15.8925940  58.9912540
  72.3099200  16.3780140  58.0410900  73.5030760  31.2925300  75.9437860
  73.9790480  31.7708190  76.6226940  74.1237920  31.2242790  75.2183360
  55.7054240  26.3374050  68.3559450  55.7834660  26.4722820  67.4115170
  56.3195920  25.6289940  68.5487570  72.9064010  28.4838150  73.1037870
  73.0327070  28.2450030  72.1855050  72.9485390  27.6522690  73.5759950
  66.7680750  32.1866150  71.6732680  67.2825420  32.0974160  72.4755110
  65.9249830  32.5325850  71.9660590  68.7435150  32.4721490  61.1016680
  68.5836290  32.1824430  61.9998510  68.5781860  31.6961620  60.5661910
  61.2223530  32.2520020  62.8788300  61.0466010  31.3355560  62.6656100
  60.3679270  32.6107310  63.1186100  68.4461280  29.9809050  59.6614680
  67.7526440  29.9786340  59.0016960  69.1884140  29.5568370  59.2308850
  68.0111210  31.6071760  63.7363170  68.4668160  30.8261140  64.0501790
  68.3503730  32.3178580  64.2804350  72.7588020  20.5370610  74.0687610
  72.1432290  21.0450280  73.5403070  72.4384440  19.6368940  74.0113550
  55.7613760  27.3788220  70.8953910  55.9244800  26.9093580  70.0773280
  56.2266210  26.8711780  71.5602750  60.5332530  16.5093980  65.9314480
  60.0900680  17.2903520  65.5999000  61.0917520  16.8323870  66.6385420
  64.8202340  19.3762500  71.5349800  64.3581710  19.5845520  72.3469740
  64.4180450  18.5621850  71.2320470  69.8206850  20.5971450  72.6646460
  68.9700440  20.2977200  72.9855530  69.6608640  20.8413460  71.7530280
  66.9156560  22.0973200  74.7645250  67.2409970  21.2636950  74.4247480
  67.7036890  22.6201720  74.9123580  63.6491350  16.1304680  60.8120310
  63.0245530  16.1264550  61.5373620  63.5621470  15.2635640  60.4156280
  62.5708430  17.0541310  67.7904080  62.8680760  17.9604140  67.7096100
  63.1193990  16.5660090  67.1763650  60.3246750  21.6327550  63.6595730
  60.0987670  21.4164720  64.5642350  59.5439280  22.0656010  63.3141700
  67.5544510  21.6390920  62.2586380  66.9553400  22.3626720  62.0750000
  68.1024120  21.5767700  61.4762830  62.7645960  22.5313130  74.3256000
  62.6689560  21.5907860  74.1756400  63.6077940  22.7528200  73.9304070
  66.1609380  20.2754460  64.2889660  66.5538950  20.5926660  63.4758350
  66.5226230  19.3966340  64.4034180  57.8956500  18.9426800  72.4789780
  57.5019890  19.7902010  72.6862560  57.2074900  18.3053170  72.6698420
  64.4701550  19.0261770  75.5486520  63.7799870  18.8333970  76.1832610
  65.2133850  19.3096410  76.0810820  55.1973550  16.8655260  66.5119860
  54.9086600  17.4358120  67.2244840  55.9419310  16.3859710  66.8751090
  66.7464520  22.8660210  68.3840440  66.0145640  23.3747020  68.7330540
  66.3488860  22.0490190  68.0829220  63.1841910  19.5414410  66.7892930
  63.1877970  19.1004360  65.9397470  64.0793030  19.8631740  66.8964750
  59.0344290  19.4240900  65.7487140  58.6944340  19.9016130  66.5054190
  58.2721610  18.9706020  65.3888240  63.2462060  20.5426490  59.7799690
  63.3674880  20.5012970  60.7285510  62.8610570  21.4050640  59.6246420
  67.2090430  18.3193890  67.7963380  67.2263170  18.7702540  68.6405230
  66.9606010  17.4199530  68.0096820  70.6361180  15.7326070  73.6349760
  70.9606950  15.0015730  74.1607740  70.6717690  15.4139710  72.7330750
  57.3352740  26.7539650  73.0549720  56.9507530  26.1133320  73.6532680
  57.6464930  27.4575770  73.6244450  63.4849880  23.6016190  68.5358340
  63.8520010  23.1274760  69.2819680  63.2954940  24.4757760  68.8766680
  61.2749250  22.6424830  70.8542550  60.9706320  23.5216810  71.0792910
  62.2295710  22.7024620  70.8899990  59.8031040  26.8485820  61.4509400
  59.0293300  26.3083440  61.2908120  60.5325670  26.3292430  61.1127160
  70.5619020  25.8451180  67.2435790  71.2818140  26.3406470  66.8531900
  70.3600840  25.1669070  66.5989660  66.0228960  17.2389140  61.3865180
  65.2093570  16.7402310  61.3110490  65.8290910  18.0787390  60.9701530
  65.9437820  25.9160240  73.1304790  65.8775130  24.9955910  72.8762380
  65.3142960  26.0135680  73.8449430  68.7377350  21.6108790  59.6827340
  69.6256970  21.9226020  59.5078680  68.7082440  20.7381040  59.2907920
  59.8468440  26.5166200  65.0888210  60.3647110  25.7134460  65.0345100
  59.3952460  26.4545340  65.9305040  64.7337940  27.7832480  60.3615510
  65.0753640  28.5274710  59.8658830  63.9050650  28.0963600  60.7240340
  57.3312980  23.4827570  72.0013910  56.9727920  24.1481420  72.5887250
  57.0367540  22.6511120  72.3726530  60.5326100  23.9411810  74.8853460
  60.2326240  24.0868990  73.9881280  61.3037340  23.3817100  74.7926850
  65.8754550  28.7380810  72.8808590  65.8899090  27.8061770  72.6627500
  65.1679650  28.8240570  73.5198360  71.0091620  22.9220630  59.1507200
  70.9255340  23.3534850  58.3003640  71.7285810  23.3818980  59.5834020
  72.0865760  25.3788150  72.2277170  71.3613950  25.9716930  72.0306560
  72.6141220  25.3711690  71.4290540  72.0378870  29.7762890  61.8789330
  71.3955030  29.1218510  62.1533050  71.6509530  30.1817980  61.1030000
  67.6165350  27.1048320  65.7261020  67.9689170  26.5076450  65.0662390
  66.7327680  26.7792550  65.8969270  63.7028630  27.8646010  63.1331430
  64.3899760  28.4115220  63.5139020  62.9161050  28.4086740  63.1681040
  63.0055840  24.8692040  62.7456790  63.4618620  25.6797290  62.9716980
  62.6544050  24.5515180  63.5775280  65.3088450  30.3798380  69.9749090
  65.9530670  30.5857760  70.6522510  65.6717890  29.6186780  69.5219940
  58.9067620  15.2129690  63.2179310  58.7782250  15.2047590  64.1664230
  58.0829640  15.5512780  62.8670320  66.5820530  28.3830730  68.6926540
  67.2242760  27.6823890  68.8058710  67.1069880  29.1629170  68.5123430
  70.4276250  28.6679350  58.4165680  70.2013830  27.9509790  59.0090320
  70.0372450  28.4191790  57.5787430  68.3558150  29.1825630  71.8962600
  68.6914390  29.7692320  72.5740520  67.4358490  29.0518340  72.1260390
  55.9061550  16.9720810  72.6786010  55.1920070  17.1717730  73.2838620
  56.3256590  16.1960380  73.0500810  70.0092500  26.5851290  60.0779840
  69.7214200  27.0463980  60.8657720  70.8044670  26.1249060  60.3464060
  56.1934140  30.9601070  73.6652540  56.3025260  30.0195810  73.5247930
  55.5414700  31.2255820  73.0166270  64.1846730  29.2316960  75.0650660
  63.8643600  28.5126200  75.6096350  63.5105090  29.9072030  75.1386720
  62.2260900  30.0777410  60.0083810  62.2171000  30.8107100  59.3928320
  61.3059260  29.8308990  60.1010770  67.4000330  19.4643120  70.4287460
  67.7681150  18.6438330  70.7567030  66.5398530  19.5245010  70.8443110
  70.7662360  18.4200060  61.2375020  70.1375520  18.5245730  60.5233250
  70.2714280  18.6396840  62.0268900  65.2120500  30.1405650  58.6709000
  65.3132480  29.9369640  57.7410980  64.3122240  29.8863930  58.8756780
  62.7346390  20.6986010  62.6532900  62.0262540  21.1672350  63.0946510
  63.0190870  20.0408020  63.2878090  64.3602320  22.1182710  70.6525430
  64.8587570  22.5928530  71.3177280  64.5025270  21.1946230  70.8595460
  66.7661820  17.4236670  64.0928690  66.6429600  17.4422800  63.1438200
  67.7146380  17.4715610  64.2127090  63.8538610  32.6591970  63.3656670
  64.1080110  32.6213360  62.4436040  62.9051090  32.5325300  63.3584920
  71.5669180  18.3350670  71.4953820  71.0642780  19.0756070  71.8347630
  72.3825840  18.7234670  71.1790610  69.8591190  23.5783850  64.9415180
  68.9181330  23.5934080  65.1162870  70.1735260  22.7919810  65.3875480
  71.8616770  30.7492700  66.6169440  71.9864190  31.5723870  67.0893250
  72.7282330  30.5383430  66.2693590  59.3334300  32.8423910  66.2886570
  60.0696780  32.2939370  66.5595140  59.7175220  33.7079920  66.1492560
  58.3392580  32.0269980  75.4772150  59.1405310  32.3482030  75.8907550
  57.8244400  31.6665560  76.1992060  62.4436610  32.0154220  58.1112140
  63.2365220  32.3043050  57.6593930  61.9240960  31.5846390  57.4324620
  67.1757210  28.1349850  75.4247560  66.5695370  28.1581450  74.6843310
  66.8711320  27.4032890  75.9614810  68.6057580  31.8630140  74.0356970
  69.5579330  31.7788160  73.9857210  68.4585800  32.5271850  74.7090760
  71.4966780  31.2424350  59.5348880  71.2108290  30.8289490  58.7203060
  71.2986330  32.1712060  59.4149400  56.0590390  24.5143440  74.4208200
  56.5629410  23.9350720  74.9924430  55.3197810  24.7983670  74.9584570
  62.9614010  27.2357630  57.9754490  62.8564650  26.6209980  58.7015870
  62.7938230  26.7123520  57.1917500  63.1128330  25.9214430  73.9543720
  62.3474000  26.4899430  73.8698390  63.2944290  25.6290640  73.0611950
  66.2016740  26.2977660  58.5796480  65.6526840  26.7446960  59.2239220
  66.8236000  25.7926910  59.1034150  70.2551680  27.6519760  74.5118740
  70.9961150  27.9895520  74.0086200  69.4924360  27.8211820  73.9588510
  58.0913470  22.6573030  75.3158270  58.1318810  22.3586900  76.2243500
  58.9458970  23.0580640  75.1565790  61.8691860  25.2568580  60.4761780
  62.2908280  25.0908450  61.3193170  61.9942700  24.4468810  59.9816920
  60.0319280  21.2365130  73.2832760  59.5015740  20.7456080  72.6556100
  60.7007350  21.6649330  72.7490690  64.3819500  24.2806190  57.7238880
  64.9025160  23.5655210  57.3580030  65.0287900  24.9192060  58.0239390
  68.9297340  25.7034590  73.0473950  69.3438360  25.8579670  73.8964370
  67.9948340  25.8289810  73.2099730  69.4019510  23.0430750  75.0513100
  69.9840280  22.2883070  74.9633580  69.5781280  23.5738190  74.2744580
  60.5191580  18.2027500  73.3630050  60.4248450  17.5848250  72.6380920
  59.9388970  18.9293790  73.1359960  63.2853020  16.7600740  70.3957440
  62.8370320  16.7825000  69.5502990  62.6518220  16.3619760  70.9927740
  63.6912570  25.6555070  71.0169880  64.1100680  26.4987800  70.8446120
  62.7721200  25.7927110  70.7876660  66.0276470  23.3871250  72.4007720
  66.1472680  22.7912390  73.1402560  66.8870470  23.4240940  71.9809020
  68.3664370  23.9408440  70.9770230  67.8399590  24.4651060  70.3735370
  68.7095710  24.5735830  71.6079960  61.5419990  31.9608080  72.1327610
  61.0041080  32.6854140  71.8136310  61.7953950  31.4838420  71.3424950
  62.7945240  19.9292600  73.6583540  63.3844930  19.6208450  74.3461360
  61.9765480  19.4572350  73.8143440  67.6138670  19.5458410  73.8916560
  66.9254190  18.8839950  73.8266550  68.3344690  19.0996680  74.3365020
  68.2439070  16.1410040  59.9506820  68.5241360  15.2977940  60.3066240
  67.4704800  16.3733150  60.4645570  64.3982200  33.1959290  72.3914260
  64.3240900  34.0994430  72.6986630  63.4961040  32.8771190  72.3636330
  62.7818490  17.3737050  58.3954020  62.4340490  16.6961040  57.8156470
  62.9831260  16.9126560  59.2097410  64.9467530  32.3617800  60.0140620
  65.8418320  32.7002770  60.0359380  64.9785160  31.6397210  59.3864900
  60.3971410  28.8542890  63.3549850  60.0966950  28.7307860  64.2553760
  60.2908900  27.9951480  62.9465580  56.2899700  31.3904470  68.4329510
  55.8530690  31.5705270  69.2653660  56.8577380  32.1479090  68.2911230
  71.9261880  30.8921470  72.7206820  71.3263870  30.9514030  71.9770740
  72.0555780  29.9526450  72.8503670  73.1663330  28.6339290  58.0576530
  72.3356290  28.7015940  58.5283760  73.3435160  29.5243410  57.7543390
  72.6219790  25.3786770  60.5610730  73.3838700  25.9483420  60.6670420
  72.6374160  24.8113970  61.3319040  73.6279760  26.2336870  65.4052660
  73.9988590  25.4504190  64.9988630  74.2681690  26.9225970  65.2269960
  70.6113520  27.6173450  70.8182980  69.7973360  28.0470610  71.0808770
  71.0187720  28.2291860  70.2052030  72.6738960  25.6721140  57.7183250
  72.9487800  26.5800020  57.5902470  72.4849700  25.6083670  58.6545240
  69.0714570  18.6965990  59.0136880  69.4899450  18.5096970  58.1733540
  68.7650630  17.8445040  59.3239810  72.5704300  23.6090130  62.7112680
  72.1947900  22.8418060  62.2793970  71.8407420  23.9912830  63.1987610
  57.1600060  24.2877270  69.3321730  57.5273100  24.2004670  70.2117750
  56.5910880  23.5243820  69.2328590  71.9603920  22.7561650  72.3452200
  71.7290010  22.5274400  71.4450150  72.2208470  23.6761200  72.2997090
  56.7116060  21.1986360  73.2380150  55.8172110  21.1653120  73.5773860
  57.2513610  21.3973150  74.0031400  70.3991990  17.9818080  75.1231900
  71.2762170  17.9901480  75.5065900  70.4112830  17.2448920  74.5124250
  71.8455260  21.8347620  66.0119920  72.3692740  21.3410270  65.3810090
  72.4314680  21.9697980  66.7567490  72.0244980  21.9187490  69.5339470
  71.0747690  21.8851030  69.6484460  72.2057990  22.8287600  69.2989240
  71.3355230  21.0920970  61.9512330  71.8314350  20.8591840  62.7361210
  71.1371300  20.2532810  61.5349970  57.2155770  15.4734690  67.5863370
  57.8631960  14.9232070  67.1458530  57.6357610  15.7277840  68.4079180
  72.7642390  19.7281920  64.4850010  72.6541670  19.5737960  65.4232280
  73.5249980  19.2002860  64.2425420  71.1108110  15.6676050  70.9433010
  71.7480330  16.2810190  71.3092200  71.2583000  15.7036710  69.9982240
  73.6532660  17.5589840  57.7256150  74.5781970  17.4271020  57.5174440
  73.6308450  17.6382660  58.6792600  73.7271150  18.3300500  60.3512860
  72.9322650  18.2645620  60.8805770  73.9314430  19.2651140  60.3398210
  70.6689570  32.3692050  64.3451250  71.2648640  32.0476620  63.6685670
  70.9267720  31.8963870  65.1364520  56.9687770  15.6290360  70.3288690
  56.6202590  16.0854180  71.0946870  56.6375470  14.7347490  70.4111120
  58.5752140  28.8009960  74.4941880  58.5321770  28.4302870  75.3756340
  58.7063150  29.7387530  74.6343700  62.2758170  30.3569550  70.0951600
  62.0349530  30.6244110  69.2082120  63.2160810  30.5275280  70.1502460
  64.4812590  16.8202240  73.8508110  64.4201480  17.4124070  74.6003520
  65.4212970  16.7128200  73.7058370  67.1187150  16.4772300  73.4900400
  67.7327560  16.7951590  72.8281480  67.6636710  15.9920890  74.1096260
  73.5362330  32.3763930  70.8962240  73.0420610  32.7732800  70.1789370
  72.9275620  31.7513140  71.2899520  57.6408410  15.1566560  73.6039460
  58.1891400  14.9754610  72.8405570  57.7063720  14.3660670  74.1395770
  58.4140170  31.7472210  71.6139660  57.8200490  31.6156910  72.3529700
  58.4064010  30.9110350  71.1481760  67.8595190  15.0404440  69.8169690
  66.9855030  15.3739550  69.6142620  67.7505940  14.5677620  70.6421560
  68.7667170  17.2475310  71.2011410  68.4380530  16.4327070  70.8213140
  69.7149470  17.2045120  71.0777100  71.2201780  33.0187350  68.1748980
  70.7604750  33.7703160  67.8007000  70.5914240  32.2993820  68.1163780
  58.0452400  29.1130590  70.5647700  57.3186460  28.4935880  70.4973650
  58.1061550  29.5071200  69.6945780  61.6497500  31.3275590  67.3497110
  62.1662520  30.7162950  66.8245370  62.2994880  31.8304370  67.8408120
  64.3893000  32.2184080  68.1766090  64.6770810  31.9638380  67.2999100
  64.9016220  31.6661440  68.7671660  65.6070010  15.9574280  68.7562600
  64.8241800  16.4319780  69.0359360  65.3132940  15.0529110  68.6475780
  70.1591080  16.6597380  66.8011690  70.5999170  16.6042480  65.9533290
  69.8898670  17.5755390  66.8721870  72.0229650  16.2912620  64.8120510
  71.9618050  15.3473840  64.6651530  72.8021680  16.3992710  65.3573970
  56.3282400  32.4304980  63.7744460  56.1604440  31.7975660  64.4726350
  55.4616910  32.6364380  63.4238650  63.4924230  18.3761030  64.2678630
  62.6798740  18.0017920  63.9274510  63.9965870  17.6206110  64.5699820
  67.9949210  15.0403480  65.5061700  68.5978580  15.6123690  65.9810220
  67.2542200  15.6042920  65.2835600  71.1383810  15.4425040  60.7801980
  71.3334440  16.3408490  61.0469410  70.3513680  15.2112120  61.2734930
  57.9345100  31.1238210  61.2194600  57.4092720  31.5046240  60.5156560
  57.8589680  31.7488980  61.9404310  61.5173410  16.5260950  62.8723680
  60.8876150  15.8248260  63.0393810  60.9778550  17.2865080  62.6556840
  64.4565360  33.1400180  75.5434290  65.3832670  32.9044450  75.5870250
  64.4415790  33.9672180  75.0620320  72.6910420  32.6825750  62.5408540
  72.8662610  31.9963490  61.8969460  71.9931990  33.2072800  62.1485210
  61.6428970  15.8044930  75.3076170  61.3613240  16.3078530  74.5436990
  62.0248670  15.0066680  74.9418300  60.5338070  33.0720590  60.0943850
  61.2656890  32.7879870  59.5467740  60.7931740  32.8333870  60.9843230
  59.6952860  29.1885320  60.0990180  59.0661740  29.6570420  60.6476010
  59.8100690  28.3434540  60.5336370  68.2444430  15.2198510  75.8856640
  68.1309880  15.5393120  76.7808160  69.0614170  15.6211020  75.5893920
  71.0242920  32.3670040  75.3675330  71.8168240  31.8719270  75.1601290
  71.3176070  33.0460180  75.9750940  67.1502580  23.2390980  46.2491380
  67.0696630  22.3245590  45.9783090  66.7367000  23.7358050  45.5431090
  65.2820620  25.0170000  48.1300650  64.5062720  24.5370440  48.4199220
  65.9333550  24.3375650  47.9556810  64.7229610  27.6927190  48.1370810
  64.6537890  26.7517130  47.9759940  65.4849470  27.7828600  48.7093380
  65.7534780  20.4997570  48.3639740  66.1299600  19.6269450  48.2513410
  65.6554290  20.8356270  47.4730180  69.5358900  17.9948010  45.2968080
  70.3568520  17.5044580  45.3393560  69.5692980  18.5845670  46.0499920
  73.8258450  20.0114760  51.8611710  73.1210620  20.3996470  51.3426820
  74.0916370  20.7065050  52.4632640  60.0083620  16.4808130  52.4245780
  60.0102060  16.9980520  51.6191680  59.1787930  16.0038310  52.4015710
  66.3954710  26.5927440  43.9235680  65.7771980  27.0576890  43.3598400
  66.9077960  27.2854920  44.3405190  69.7720380  19.9348390  48.0695620
  69.0675950  20.2233280  48.6498730  70.1332540  20.7448500  47.7095180
  71.3883160  29.5523520  50.3323100  70.7046680  30.2222630  50.3239770
  71.9277450  29.7504170  49.5667960  72.8407300  19.3803180  48.4604830
  71.8932210  19.4142160  48.5920260  73.1657290  20.1942130  48.8454190
  63.3726840  15.6800360  46.7560820  63.6801820  15.1247250  46.0396320
  62.4427540  15.8144820  46.5733810  68.3227340  26.2997490  50.3750890
  68.7396130  26.0857600  49.5404350  69.0467160  26.5570280  50.9459510
  72.2689440  24.6984710  50.4667130  71.4408070  24.7677800  49.9917260
  72.8639920  25.2839020  49.9982960  69.7904890  25.3069490  43.9956190
  69.1717310  24.9689040  43.3482490  69.7729340  24.6629250  44.7035380
  69.2331450  21.4854030  51.4122000  68.8202630  22.3107740  51.6661990
  68.5007400  20.8999070  51.2198360  69.9231550  31.5313360  52.1002980
  69.4462110  32.3385550  51.9075590  69.2393340  30.8791690  52.2529190
  67.9669590  24.5456300  41.0028940  68.4062870  23.7078730  40.8566760
  68.6798010  25.1785700  41.0893080  71.5486730  15.7999110  39.3169980
  71.2359390  15.8925940  40.2169050  72.3099200  16.3780140  39.2667410
  73.5030760  31.2925300  57.1694370  73.9790480  31.7708190  57.8483450
  74.1237920  31.2242790  56.4439870  72.9064010  28.4838150  54.3294380
  73.0327070  28.2450030  53.4111560  72.9485390  27.6522690  54.8016460
  68.4461280  29.9809050  40.8871190  67.7526440  29.9786340  40.2273470
  69.1884140  29.5568370  40.4565360  72.7588020  20.5370610  55.2944120
  72.1432290  21.0450280  54.7659580  72.4384440  19.6368940  55.2370060
  60.5332530  16.5093980  47.1570990  60.0900680  17.2903520  46.8255510
  61.0917520  16.8323870  47.8641930  64.8202340  19.3762500  52.7606310
  64.3581710  19.5845520  53.5726250  64.4180450  18.5621850  52.4576980
  69.8206850  20.5971450  53.8902970  68.9700440  20.2977200  54.2112040
  69.6608640  20.8413460  52.9786790  66.9156560  22.0973200  55.9901760
  67.2409970  21.2636950  55.6503990  67.7036890  22.6201720  56.1380090
  63.6491350  16.1304680  42.0376820  63.0245530  16.1264550  42.7630130
  63.5621470  15.2635640  41.6412790  62.5708430  17.0541310  49.0160590
  62.8680760  17.9604140  48.9352610  63.1193990  16.5660090  48.4020160
  67.5544510  21.6390920  43.4842890  66.9553400  22.3626720  43.3006510
  68.1024120  21.5767700  42.7019340  62.7645960  22.5313130  55.5512510
  62.6689560  21.5907860  55.4012910  63.6077940  22.7528200  55.1560580
  66.1609380  20.2754460  45.5146170  66.5538950  20.5926660  44.7014860
  66.5226230  19.3966340  45.6290690  64.4701550  19.0261770  56.7743030
  63.7799870  18.8333970  57.4089120  65.2133850  19.3096410  57.3067330
  66.7464520  22.8660210  49.6096950  66.0145640  23.3747020  49.9587050
  66.3488860  22.0490190  49.3085730  63.1841910  19.5414410  48.0149440
  63.1877970  19.1004360  47.1653980  64.0793030  19.8631740  48.1221260
  67.2090430  18.3193890  49.0219890  67.2263170  18.7702540  49.8661740
  66.9606010  17.4199530  49.2353330  70.6361180  15.7326070  54.8606270
  70.9606950  15.0015730  55.3864250  70.6717690  15.4139710  53.9587260
  61.2749250  22.6424830  52.0799060  60.9706320  23.5216810  52.3049420
  62.2295710  22.7024620  52.1156500  70.5619020  25.8451180  48.4692300
  71.2818140  26.3406470  48.0788410  70.3600840  25.1669070  47.8246170
  66.0228960  17.2389140  42.6121690  65.2093570  16.7402310  42.5367000
  65.8290910  18.0787390  42.1958040  65.9437820  25.9160240  54.3561300
  65.8775130  24.9955910  54.1018890  65.3142960  26.0135680  55.0705940
  65.8754550  28.7380810  54.1065100  65.8899090  27.8061770  53.8884010
  65.1679650  28.8240570  54.7454870  71.0091620  22.9220630  40.3763710
  70.9255340  23.3534850  39.5260150  71.7285810  23.3818980  40.8090530
  72.0865760  25.3788150  53.4533680  71.3613950  25.9716930  53.2563070
  72.6141220  25.3711690  52.6547050  66.5820530  28.3830730  49.9183050
  67.2242760  27.6823890  50.0315220  67.1069880  29.1629170  49.7379940
  70.4276250  28.6679350  39.6422190  70.2013830  27.9509790  40.2346830
  70.0372450  28.4191790  38.8043940  68.3558150  29.1825630  53.1219110
  68.6914390  29.7692320  53.7997030  67.4358490  29.0518340  53.3516900
  70.0092500  26.5851290  41.3036350  69.7214200  27.0463980  42.0914230
  70.8044670  26.1249060  41.5720570  64.1846730  29.2316960  56.2907170
  63.8643600  28.5126200  56.8352860  63.5105090  29.9072030  56.3643230
  67.4000330  19.4643120  51.6543970  67.7681150  18.6438330  51.9823540
  66.5398530  19.5245010  52.0699620  70.7662360  18.4200060  42.4631530
  70.1375520  18.5245730  41.7489760  70.2714280  18.6396840  43.2525410
  64.3602320  22.1182710  51.8781940  64.8587570  22.5928530  52.5433790
  64.5025270  21.1946230  52.0851970  66.7661820  17.4236670  45.3185200
  66.6429600  17.4422800  44.3694710  67.7146380  17.4715610  45.4383600
  71.5669180  18.3350670  52.7210330  71.0642780  19.0756070  53.0604140
  72.3825840  18.7234670  52.4047120  69.8591190  23.5783850  46.1671690
  68.9181330  23.5934080  46.3419380  70.1735260  22.7919810  46.6131990
  67.1757210  28.1349850  56.6504070  66.5695370  28.1581450  55.9099820
  66.8711320  27.4032890  57.1871320  68.6057580  31.8630140  55.2613480
  69.5579330  31.7788160  55.2113720  68.4585800  32.5271850  55.9347270
  71.4966780  31.2424350  40.7605390  71.2108290  30.8289490  39.9459570
  71.2986330  32.1712060  40.6405910  63.1128330  25.9214430  55.1800230
  62.3474000  26.4899430  55.0954900  63.2944290  25.6290640  54.2868460
  66.2016740  26.2977660  39.8052990  65.6526840  26.7446960  40.4495730
  66.8236000  25.7926910  40.3290660  70.2551680  27.6519760  55.7375250
  70.9961150  27.9895520  55.2342710  69.4924360  27.8211820  55.1845020
  68.9297340  25.7034590  54.2730460  69.3438360  25.8579670  55.1220880
  67.9948340  25.8289810  54.4356240  69.4019510  23.0430750  56.2769610
  69.9840280  22.2883070  56.1890090  69.5781280  23.5738190  55.5001090
  60.5191580  18.2027500  54.5886560  60.4248450  17.5848250  53.8637430
  59.9388970  18.9293790  54.3616470  63.2853020  16.7600740  51.6213950
  62.8370320  16.7825000  50.7759500  62.6518220  16.3619760  52.2184250
  66.0276470  23.3871250  53.6264230  66.1472680  22.7912390  54.3659070
  66.8870470  23.4240940  53.2065530  68.3664370  23.9408440  52.2026740
  67.8399590  24.4651060  51.5991880  68.7095710  24.5735830  52.8336470
  62.7945240  19.9292600  54.8840050  63.3844930  19.6208450  55.5717870
  61.9765480  19.4572350  55.0399950  67.6138670  19.5458410  55.1173070
  66.9254190  18.8839950  55.0523060  68.3344690  19.0996680  55.5621530
  68.2439070  16.1410040  41.1763330  68.5241360  15.2977940  41.5322750
  67.4704800  16.3733150  41.6902080  64.3982200  33.1959290  53.6170770
  64.3240900  34.0994430  53.9243140  63.4961040  32.8771190  53.5892840
  71.9261880  30.8921470  53.9463330  71.3263870  30.9514030  53.2027250
  72.0555780  29.9526450  54.0760180  73.1663330  28.6339290  39.2833040
  72.3356290  28.7015940  39.7540270  73.3435160  29.5243410  38.9799900
  72.6219790  25.3786770  41.7867240  73.3838700  25.9483420  41.8926930
  72.6374160  24.8113970  42.5575550  73.6279760  26.2336870  46.6309170
  73.9988590  25.4504190  46.2245140  74.2681690  26.9225970  46.4526470
  70.6113520  27.6173450  52.0439490  69.7973360  28.0470610  52.3065280
  71.0187720  28.2291860  51.4308540  72.6738960  25.6721140  38.9439760
  72.9487800  26.5800020  38.8158980  72.4849700  25.6083670  39.8801750
  72.5704300  23.6090130  43.9369190  72.1947900  22.8418060  43.5050480
  71.8407420  23.9912830  44.4244120  71.9603920  22.7561650  53.5708710
  71.7290010  22.5274400  52.6706660  72.2208470  23.6761200  53.5253600
  70.3991990  17.9818080  56.3488410  71.2762170  17.9901480  56.7322410
  70.4112830  17.2448920  55.7380760  71.8455260  21.8347620  47.2376430
  72.3692740  21.3410270  46.6066600  72.4314680  21.9697980  47.9824000
  72.0244980  21.9187490  50.7595980  71.0747690  21.8851030  50.8740970
  72.2057990  22.8287600  50.5245750  57.5263580  16.2228500  38.9097260
  58.2491710  16.7637440  39.2278480  57.7988100  15.9491920  38.0338800
  71.3355230  21.0920970  43.1768840  71.8314350  20.8591840  43.9617720
  71.1371300  20.2532810  42.7606480  72.7642390  19.7281920  45.7106520
  72.6541670  19.5737960  46.6488790  73.5249980  19.2002860  45.4681930
  71.1108110  15.6676050  52.1689520  71.7480330  16.2810190  52.5348710
  71.2583000  15.7036710  51.2238750  73.6532660  17.5589840  38.9512660
  74.5781970  17.4271020  38.7430950  73.6308450  17.6382660  39.9049110
  73.7271150  18.3300500  41.5769370  72.9322650  18.2645620  42.1062280
  73.9314430  19.2651140  41.5654720  64.4812590  16.8202240  55.0764620
  64.4201480  17.4124070  55.8260030  65.4212970  16.7128200  54.9314880
  67.1187150  16.4772300  54.7156910  67.7327560  16.7951590  54.0537990
  67.6636710  15.9920890  55.3352770  73.5362330  32.3763930  52.1218750
  73.0420610  32.7732800  51.4045880  72.9275620  31.7513140  52.5156030
  67.8595190  15.0404440  51.0426200  66.9855030  15.3739550  50.8399130
  67.7505940  14.5677620  51.8678070  68.7667170  17.2475310  52.4267920
  68.4380530  16.4327070  52.0469650  69.7149470  17.2045120  52.3033610
  65.6070010  15.9574280  49.9819110  64.8241800  16.4319780  50.2615870
  65.3132940  15.0529110  49.8732290  70.1591080  16.6597380  48.0268200
  70.5999170  16.6042480  47.1789800  69.8898670  17.5755390  48.0978380
  72.0229650  16.2912620  46.0377020  71.9618050  15.3473840  45.8908040
  72.8021680  16.3992710  46.5830480  63.4924230  18.3761030  45.4935140
  62.6798740  18.0017920  45.1531020  63.9965870  17.6206110  45.7956330
  67.9949210  15.0403480  46.7318210  68.5978580  15.6123690  47.2066730
  67.2542200  15.6042920  46.5092110  71.1383810  15.4425040  42.0058490
  71.3334440  16.3408490  42.2725920  70.3513680  15.2112120  42.4991440
  59.3235570  16.7885810  41.0434800  59.8528330  16.0015610  40.9142750
  59.9563890  17.4677000  41.2770330  61.5173410  16.5260950  44.0980190
  60.8876150  15.8248260  44.2650320  60.9778550  17.2865080  43.8813350
  64.4565360  33.1400180  56.7690800  65.3832670  32.9044450  56.8126760
  64.4415790  33.9672180  56.2876830  61.6428970  15.8044930  56.5332680
  61.3613240  16.3078530  55.7693500  62.0248670  15.0066680  56.1674810
  68.2444430  15.2198510  57.1113150  68.1309880  15.5393120  58.0064670
  69.0614170  15.6211020  56.8150430  71.0242920  32.3670040  56.5931840
  71.8168240  31.8719270  56.3857800  71.3176070  33.0460180  57.2007450
  67.1502580  23.2390980  27.4747890  67.0696630  22.3245590  27.2039600
  66.7367000  23.7358050  26.7687600  65.2820620  25.0170000  29.3557160
  64.5062720  24.5370440  29.6455730  65.9333550  24.3375650  29.1813320
  69.3028050  29.4230190  28.1356290  68.8409580  28.6517430  28.4643460
  70.1153600  29.4496260  28.6408740  57.7078400  20.2891700  24.0175310
  56.8195100  20.6307670  23.9155190  57.9919590  20.0892020  23.1256140
  55.6711410  22.8897350  29.9015010  56.2427520  22.1219550  29.9018650
  55.6712950  23.1886110  28.9921620  64.7229610  27.6927190  29.3627320
  64.6537890  26.7517130  29.2016450  65.4849470  27.7828600  29.9349890
  59.8839790  18.8723200  25.0513690  59.9906540  19.7726930  25.3582450
  58.9732150  18.8241170  24.7608340  69.5358900  17.9948010  26.5224590
  70.3568520  17.5044580  26.5650070  69.5692980  18.5845670  27.2756430
  73.8258450  20.0114760  33.0868220  73.1210620  20.3996470  32.5683330
  74.0916370  20.7065050  33.6889150  66.3954710  26.5927440  25.1492190
  65.7771980  27.0576890  24.5854910  66.9077960  27.2854920  25.5661700
  61.2586470  26.1203310  31.8275790  60.9255850  26.7472230  32.4696860
  61.4353150  26.6465190  31.0477460  69.7720380  19.9348390  29.2952130
  69.0675950  20.2233280  29.8755240  70.1332540  20.7448500  28.9351690
  55.7637910  27.2783970  22.5231820  55.3865890  27.7671070  21.7916720
  56.0210980  27.9509250  23.1538350  71.3883160  29.5523520  31.5579610
  70.7046680  30.2222630  31.5496280  71.9277450  29.7504170  30.7924470
  72.8407300  19.3803180  29.6861340  71.8932210  19.4142160  29.8176770
  73.1657290  20.1942130  30.0710700  63.3726840  15.6800360  27.9817330
  63.6801820  15.1247250  27.2652830  62.4427540  15.8144820  27.7990320
  70.2187320  28.1183870  25.3614960  70.1083650  27.1758200  25.4864380
  70.2155570  28.4799510  26.2477720  68.3227340  26.2997490  31.6007400
  68.7396130  26.0857600  30.7660860  69.0467160  26.5570280  32.1716020
  65.7607600  23.7449190  24.7177450  64.8336880  23.6786570  24.9465920
  65.9132420  24.6829320  24.6032690  65.7476680  20.0166190  21.7144610
  64.8080350  20.1780150  21.7997070  66.0659940  20.7351870  21.1680600
  72.2689440  24.6984710  31.6923640  71.4408070  24.7677800  31.2173770
  72.8639920  25.2839020  31.2239470  69.7904890  25.3069490  25.2212700
  69.1717310  24.9689040  24.5739000  69.7729340  24.6629250  25.9291890
  69.2331450  21.4854030  32.6378510  68.8202630  22.3107740  32.8918500
  68.5007400  20.8999070  32.4454870  61.8345940  27.9581490  29.6636390
  61.5374230  27.3526960  28.9844170  62.7845760  27.9958800  29.5525750
  69.9231550  31.5313360  33.3259490  69.4462110  32.3385550  33.1332100
  69.2393340  30.8791690  33.4785700  67.9669590  24.5456300  22.2285450
  68.4062870  23.7078730  22.0823270  68.6798010  25.1785700  22.3149590
  66.0764970  29.4852370  26.1966690  66.5160880  30.2276700  25.7822080
  66.0151860  29.7278940  27.1205650  71.5486730  15.7999110  20.5426490
  71.2359390  15.8925940  21.4425560  72.3099200  16.3780140  20.4923920
  58.0668870  23.1658910  25.0003830  57.9466470  23.8921000  24.3885100
  57.7569760  22.3961820  24.5231740  73.5030760  31.2925300  38.3950880
  73.9790480  31.7708190  39.0739960  74.1237920  31.2242790  37.6696380
  56.9501870  28.0374240  27.2178650  56.5429950  28.1788830  26.3632250
  57.8414880  27.7534400  27.0149860  72.9064010  28.4838150  35.5550890
  73.0327070  28.2450030  34.6368070  72.9485390  27.6522690  36.0272970
  68.7435150  32.4721490  23.5529700  68.5836290  32.1824430  24.4511530
  68.5781860  31.6961620  23.0174930  68.4461280  29.9809050  22.1127700
  67.7526440  29.9786340  21.4529980  69.1884140  29.5568370  21.6821870
  72.7588020  20.5370610  36.5200630  72.1432290  21.0450280  35.9916090
  72.4384440  19.6368940  36.4626570  60.5332530  16.5093980  28.3827500
  60.0900680  17.2903520  28.0512020  61.0917520  16.8323870  29.0898440
  69.8206850  20.5971450  35.1159480  68.9700440  20.2977200  35.4368550
  69.6608640  20.8413460  34.2043300  63.6491350  16.1304680  23.2633330
  63.0245530  16.1264550  23.9886640  63.5621470  15.2635640  22.8669300
  60.3246750  21.6327550  26.1108750  60.0987670  21.4164720  27.0155370
  59.5439280  22.0656010  25.7654720  67.5544510  21.6390920  24.7099400
  66.9553400  22.3626720  24.5263020  68.1024120  21.5767700  23.9275850
  66.1609380  20.2754460  26.7402680  66.5538950  20.5926660  25.9271370
  66.5226230  19.3966340  26.8547200  55.3843780  20.8075380  20.1735600
  55.3018450  21.7506140  20.3150590  55.0326840  20.6650290  19.2947950
  63.2462060  20.5426490  22.2312710  63.3674880  20.5012970  23.1798530
  62.8610570  21.4050640  22.0759440  62.2583560  22.8527630  21.6296010
  61.6900460  22.4045880  21.0031920  62.9672560  23.2120410  21.0961160
  70.6361180  15.7326070  36.0862780  70.9606950  15.0015730  36.6120760
  70.6717690  15.4139710  35.1843770  56.3490370  18.3459880  27.1164830
  56.0637290  17.9815550  27.9543450  56.2869230  17.6140340  26.5027970
  59.8031040  26.8485820  23.9022420  59.0293300  26.3083440  23.7421140
  60.5325670  26.3292430  23.5640180  70.5619020  25.8451180  29.6948810
  71.2818140  26.3406470  29.3044920  70.3600840  25.1669070  29.0502680
  66.0228960  17.2389140  23.8378200  65.2093570  16.7402310  23.7623510
  65.8290910  18.0787390  23.4214550  65.9437820  25.9160240  35.5817810
  65.8775130  24.9955910  35.3275400  65.3142960  26.0135680  36.2962450
  68.7377350  21.6108790  22.1340360  69.6256970  21.9226020  21.9591700
  68.7082440  20.7381040  21.7420940  59.8468440  26.5166200  27.5401230
  60.3647110  25.7134460  27.4858120  59.3952460  26.4545340  28.3818060
  64.7337940  27.7832480  22.8128530  65.0753640  28.5274710  22.3171850
  63.9050650  28.0963600  23.1753360  65.8754550  28.7380810  35.3321610
  65.8899090  27.8061770  35.1140520  65.1679650  28.8240570  35.9711380
  71.0091620  22.9220630  21.6020220  70.9255340  23.3534850  20.7516660
  71.7285810  23.3818980  22.0347040  72.0865760  25.3788150  34.6790190
  71.3613950  25.9716930  34.4819580  72.6141220  25.3711690  33.8803560
  72.0378870  29.7762890  24.3302350  71.3955030  29.1218510  24.6046070
  71.6509530  30.1817980  23.5543020  67.6165350  27.1048320  28.1774040
  67.9689170  26.5076450  27.5175410  66.7327680  26.7792550  28.3482290
  63.7028630  27.8646010  25.5844450  64.3899760  28.4115220  25.9652040
  62.9161050  28.4086740  25.6194060  55.8421030  23.4818830  21.0761530
  56.7115880  23.7643630  21.3597450  55.3511350  24.2954700  20.9610340
  63.0055840  24.8692040  25.1969810  63.4618620  25.6797290  25.4230000
  62.6544050  24.5515180  26.0288300  58.9067620  15.2129690  25.6692330
  58.7782250  15.2047590  26.6177250  58.0829640  15.5512780  25.3183340
  66.5820530  28.3830730  31.1439560  67.2242760  27.6823890  31.2571730
  67.1069880  29.1629170  30.9636450  70.4276250  28.6679350  20.8678700
  70.2013830  27.9509790  21.4603340  70.0372450  28.4191790  20.0300450
  68.3558150  29.1825630  34.3475620  68.6914390  29.7692320  35.0253540
  67.4358490  29.0518340  34.5773410  56.2092280  32.6946210  21.6423160
  56.5689920  33.2935550  20.9880430  56.0684620  33.2406100  22.4158190
  70.0092500  26.5851290  22.5292860  69.7214200  27.0463980  23.3170740
  70.8044670  26.1249060  22.7977080  64.1846730  29.2316960  37.5163680
  63.8643600  28.5126200  38.0609370  63.5105090  29.9072030  37.5899740
  62.2260900  30.0777410  22.4596830  62.2171000  30.8107100  21.8441340
  61.3059260  29.8308990  22.5523790  57.8267540  25.2992300  23.2043590
  57.2195490  26.0391200  23.2138890  58.3016890  25.3891660  22.3781790
  70.7662360  18.4200060  23.6888040  70.1375520  18.5245730  22.9746270
  70.2714280  18.6396840  24.4781920  65.2120500  30.1405650  21.1222020
  65.3132480  29.9369640  20.1924000  64.3122240  29.8863930  21.3269800
  62.7346390  20.6986010  25.1045920  62.0262540  21.1672350  25.5459530
  63.0190870  20.0408020  25.7391110  66.7661820  17.4236670  26.5441710
  66.6429600  17.4422800  25.5951220  67.7146380  17.4715610  26.6640110
  60.9381410  19.0071090  22.4796630  61.7871940  19.4441240  22.4136820
  60.5712680  19.3191350  23.3068690  71.5669180  18.3350670  33.9466840
  71.0642780  19.0756070  34.2860650  72.3825840  18.7234670  33.6303630
  69.8591190  23.5783850  27.3928200  68.9181330  23.5934080  27.5675890
  70.1735260  22.7919810  27.8388500  59.8372830  25.2603450  20.9532160
  60.6036100  25.1484810  21.5157590  59.9147520  24.5641420  20.3008930
  58.5319590  22.6928520  21.6365050  58.6123180  21.7456030  21.7482450
  59.4239340  23.0235400  21.7425710  71.8616770  30.7492700  29.0682460
  71.9864190  31.5723870  29.5406270  72.7282330  30.5383430  28.7206610
  56.2179780  28.9097480  24.6141100  55.2919560  29.1518620  24.6046510
  56.6836210  29.7371740  24.4925850  62.4436610  32.0154220  20.5625160
  63.2365220  32.3043050  20.1106950  61.9240960  31.5846390  19.8837640
  67.1757210  28.1349850  37.8760580  66.5695370  28.1581450  37.1356330
  66.8711320  27.4032890  38.4127830  68.6057580  31.8630140  36.4869990
  69.5579330  31.7788160  36.4370230  68.4585800  32.5271850  37.1603780
  71.4966780  31.2424350  21.9861900  71.2108290  30.8289490  21.1716080
  71.2986330  32.1712060  21.8662420  62.9614010  27.2357630  20.4267510
  62.8564650  26.6209980  21.1528890  62.7938230  26.7123520  19.6430520
  66.2016740  26.2977660  21.0309500  65.6526840  26.7446960  21.6752240
  66.8236000  25.7926910  21.5547170  70.2551680  27.6519760  36.9631760
  70.9961150  27.9895520  36.4599220  69.4924360  27.8211820  36.4101530
  61.8691860  25.2568580  22.9274800  62.2908280  25.0908450  23.7706190
  61.9942700  24.4468810  22.4329940  64.3819500  24.2806190  20.1751900
  64.9025160  23.5655210  19.8093050  65.0287900  24.9192060  20.4752410
  68.9297340  25.7034590  35.4986970  69.3438360  25.8579670  36.3477390
  67.9948340  25.8289810  35.6612750  69.4019510  23.0430750  37.5026120
  69.9840280  22.2883070  37.4146600  69.5781280  23.5738190  36.7257600
  63.6912570  25.6555070  33.4682900  64.1100680  26.4987800  33.2959140
  62.7721200  25.7927110  33.2389680  66.0276470  23.3871250  34.8520740
  66.1472680  22.7912390  35.5915580  66.8870470  23.4240940  34.4322040
  68.3664370  23.9408440  33.4283250  67.8399590  24.4651060  32.8248390
  68.7095710  24.5735830  34.0592980  60.7650760  21.3301810  19.8732960
  60.5639820  20.4669170  20.2346300  60.5942810  21.2435170  18.9354560
  68.2439070  16.1410040  22.4019840  68.5241360  15.2977940  22.7579260
  67.4704800  16.3733150  22.9158590  59.5633560  18.4302430  19.8610840
  59.8659460  18.4369860  18.9529990  60.3028150  18.0800290  20.3578500
  62.7818490  17.3737050  20.8467040  62.4340490  16.6961040  20.2669490
  62.9831260  16.9126560  21.6610430  64.9467530  32.3617800  22.4653640
  65.8418320  32.7002770  22.4872400  64.9785160  31.6397210  21.8377920
  58.5863690  27.7344850  20.6940640  59.0238560  28.2774520  21.3498220
  59.0711420  26.9091800  20.7036980  60.3971410  28.8542890  25.8062870
  60.0966950  28.7307860  26.7066780  60.2908900  27.9951480  25.3978600
  71.9261880  30.8921470  35.1719840  71.3263870  30.9514030  34.4283760
  72.0555780  29.9526450  35.3016690  73.1663330  28.6339290  20.5089550
  72.3356290  28.7015940  20.9796780  73.3435160  29.5243410  20.2056410
  72.6219790  25.3786770  23.0123750  73.3838700  25.9483420  23.1183440
  72.6374160  24.8113970  23.7832060  56.1224130  23.9024700  27.2431410
  55.4672970  23.6336340  26.5991110  56.9602080  23.7929180  26.7933390
  73.6279760  26.2336870  27.8565680  73.9988590  25.4504190  27.4501650
  74.2681690  26.9225970  27.6782980  70.6113520  27.6173450  33.2696000
  69.7973360  28.0470610  33.5321790  71.0187720  28.2291860  32.6565050
  72.6738960  25.6721140  20.1696270  72.9487800  26.5800020  20.0415490
  72.4849700  25.6083670  21.1058260  69.0714570  18.6965990  21.4649900
  69.4899450  18.5096970  20.6246560  68.7650630  17.8445040  21.7752830
  72.5704300  23.6090130  25.1625700  72.1947900  22.8418060  24.7306990
  71.8407420  23.9912830  25.6500630  71.9603920  22.7561650  34.7965220
  71.7290010  22.5274400  33.8963170  72.2208470  23.6761200  34.7510110
  70.3991990  17.9818080  37.5744920  71.2762170  17.9901480  37.9578920
  70.4112830  17.2448920  36.9637270  55.3362210  21.1123630  23.1856740
  54.4326290  21.3753830  23.0108400  55.8202830  21.3834800  22.4056700
  71.8455260  21.8347620  28.4632940  72.3692740  21.3410270  27.8323110
  72.4314680  21.9697980  29.2080510  72.0244980  21.9187490  31.9852490
  71.0747690  21.8851030  32.0997480  72.2057990  22.8287600  31.7502260
  57.8789420  20.1689170  21.0951120  58.5881120  19.7472390  20.6098400
  57.1629360  20.2364400  20.4634470  57.5263580  16.2228500  20.1353770
  58.2491710  16.7637440  20.4534990  57.7988100  15.9491920  19.2595310
  71.3355230  21.0920970  24.4025350  71.8314350  20.8591840  25.1874230
  71.1371300  20.2532810  23.9862990  72.7642390  19.7281920  26.9363030
  72.6541670  19.5737960  27.8745300  73.5249980  19.2002860  26.6938440
  71.1108110  15.6676050  33.3946030  71.7480330  16.2810190  33.7605220
  71.2583000  15.7036710  32.4495260  73.6532660  17.5589840  20.1769170
  74.5781970  17.4271020  19.9687460  73.6308450  17.6382660  21.1305620
  73.7271150  18.3300500  22.8025880  72.9322650  18.2645620  23.3318790
  73.9314430  19.2651140  22.7911230  70.6689570  32.3692050  26.7964270
  71.2648640  32.0476620  26.1198690  70.9267720  31.8963870  27.5877540
  67.1187150  16.4772300  35.9413420  67.7327560  16.7951590  35.2794500
  67.6636710  15.9920890  36.5609280  73.5362330  32.3763930  33.3475260
  73.0420610  32.7732800  32.6302390  72.9275620  31.7513140  33.7412540
  57.6408410  15.1566560  36.0552480  58.1891400  14.9754610  35.2918590
  57.7063720  14.3660670  36.5908790  67.8595190  15.0404440  32.2682710
  66.9855030  15.3739550  32.0655640  67.7505940  14.5677620  33.0934580
  68.7667170  17.2475310  33.6524430  68.4380530  16.4327070  33.2726160
  69.7149470  17.2045120  33.5290120  70.1591080  16.6597380  29.2524710
  70.5999170  16.6042480  28.4046310  69.8898670  17.5755390  29.3234890
  72.0229650  16.2912620  27.2633530  71.9618050  15.3473840  27.1164550
  72.8021680  16.3992710  27.8086990  56.9510420  16.2621760  23.7289340
  57.7089780  16.3750640  23.1553370  56.4887590  17.0990960  23.6832770
  63.4924230  18.3761030  26.7191650  62.6798740  18.0017920  26.3787530
  63.9965870  17.6206110  27.0212840  67.9949210  15.0403480  27.9574720
  68.5978580  15.6123690  28.4323240  67.2542200  15.6042920  27.7348620
  71.1383810  15.4425040  23.2315000  71.3334440  16.3408490  23.4982430
  70.3513680  15.2112120  23.7247950  57.9345100  31.1238210  23.6707620
  57.4092720  31.5046240  22.9669580  57.8589680  31.7488980  24.3917330
  59.3235570  16.7885810  22.2691310  59.8528330  16.0015610  22.1399260
  59.9563890  17.4677000  22.5026840  61.5173410  16.5260950  25.3236700
  60.8876150  15.8248260  25.4906830  60.9778550  17.2865080  25.1069860
  72.6910420  32.6825750  24.9921560  72.8662610  31.9963490  24.3482480
  71.9931990  33.2072800  24.5998230  60.5338070  33.0720590  22.5456870
  61.2656890  32.7879870  21.9980760  60.7931740  32.8333870  23.4356250
  59.6952860  29.1885320  22.5503200  59.0661740  29.6570420  23.0989030
  59.8100690  28.3434540  22.9849390  68.2444430  15.2198510  38.3369660
  68.1309880  15.5393120  39.2321180  69.0614170  15.6211020  38.0406940
  71.0242920  32.3670040  37.8188350  71.8168240  31.8719270  37.6114310
  71.3176070  33.0460180  38.4263960  67.1502580  23.2390980   8.7004400
  67.0696630  22.3245590   8.4296110  66.7367000  23.7358050   7.9944110
  65.2820620  25.0170000  10.5813670  64.5062720  24.5370440  10.8712240
  65.9333550  24.3375650  10.4069830  59.2986450  25.3289810  11.4589430
  58.4671330  25.0738520  11.8585940  59.9067430  25.4000580  12.1947350
  69.3028050  29.4230190   9.3612800  68.8409580  28.6517430   9.6899970
  70.1153600  29.4496260   9.8665250  59.2787710  29.3629900  11.6547450
  59.5815750  28.4727640  11.4757670  60.0231300  29.9200120  11.4269700
  57.7078400  20.2891700   5.2431820  56.8195100  20.6307670   5.1411700
  57.9919590  20.0892020   4.3512650  55.6711410  22.8897350  11.1271520
  56.2427520  22.1219550  11.1275160  55.6712950  23.1886110  10.2178130
  65.5291360  31.7088200   8.9816790  64.9102800  32.1645700   8.4111230
  66.3843140  31.8639660   8.5806490  64.7229610  27.6927190  10.5883830
  64.6537890  26.7517130  10.4272960  65.4849470  27.7828600  11.1606400
  56.9136280  18.2981710  12.9140450  56.7339120  17.4007460  13.1943210
  56.5116360  18.8453580  13.5887400  65.7534780  20.4997570  10.8152760
  66.1299600  19.6269450  10.7026430  65.6554290  20.8356270   9.9243200
  59.8839790  18.8723200   6.2770200  59.9906540  19.7726930   6.5838960
  58.9732150  18.8241170   5.9864850  69.5358900  17.9948010   7.7481100
  70.3568520  17.5044580   7.7906580  69.5692980  18.5845670   8.5012940
  57.5322950  20.7942210  11.5222790  58.2133060  21.0580580  12.1410190
  57.2171000  19.9543080  11.8560800  61.7247520  21.8409570  10.6095380
  62.2325740  22.3390540  11.2500400  62.2560760  21.0644770  10.4334740
  73.8258450  20.0114760  14.3124730  73.1210620  20.3996470  13.7939840
  74.0916370  20.7065050  14.9145660  60.0083620  16.4808130  14.8758800
  60.0102060  16.9980520  14.0704700  59.1787930  16.0038310  14.8528730
  66.3954710  26.5927440   6.3748700  65.7771980  27.0576890   5.8111420
  66.9077960  27.2854920   6.7918210  61.2586470  26.1203310  13.0532300
  60.9255850  26.7472230  13.6953370  61.4353150  26.6465190  12.2733970
  69.7720380  19.9348390  10.5208640  69.0675950  20.2233280  11.1011750
  70.1332540  20.7448500  10.1608200  59.6898950  18.1918090  12.8829250
  60.0315760  19.0360140  12.5883120  58.7514760  18.3401830  12.9994590
  60.4705570  28.0884110  14.8681480  61.0879570  28.7635190  14.5865930
  59.6098690  28.4972090  14.7768980  55.7637910  27.2783970   3.7488330
  55.3865890  27.7671070   3.0173230  56.0210980  27.9509250   4.3794860
  71.3883160  29.5523520  12.7836120  70.7046680  30.2222630  12.7752790
  71.9277450  29.7504170  12.0180980  72.8407300  19.3803180  10.9117850
  71.8932210  19.4142160  11.0433280  73.1657290  20.1942130  11.2967210
  63.3726840  15.6800360   9.2073840  63.6801820  15.1247250   8.4909340
  62.4427540  15.8144820   9.0246830  68.9241900  31.3967650  11.4981300
  68.9369060  30.9929940  10.6303560  68.3717120  32.1714940  11.3942730
  70.2187320  28.1183870   6.5871470  70.1083650  27.1758200   6.7120890
  70.2155570  28.4799510   7.4734230  68.3227340  26.2997490  12.8263910
  68.7396130  26.0857600  11.9917370  69.0467160  26.5570280  13.3972530
  65.7607600  23.7449190   5.9433960  64.8336880  23.6786570   6.1722430
  65.9132420  24.6829320   5.8289200  65.7476680  20.0166190   2.9401120
  64.8080350  20.1780150   3.0253580  66.0659940  20.7351870   2.3937110
  72.2689440  24.6984710  12.9180150  71.4408070  24.7677800  12.4430280
  72.8639920  25.2839020  12.4495980  69.7904890  25.3069490   6.4469210
  69.1717310  24.9689040   5.7995510  69.7729340  24.6629250   7.1548400
  69.2331450  21.4854030  13.8635020  68.8202630  22.3107740  14.1175010
  68.5007400  20.8999070  13.6711380  61.3664240  24.2713930   8.7253690
  60.9621240  23.5591180   8.2299590  61.4527360  23.9267170   9.6141730
  61.8345940  27.9581490  10.8892900  61.5374230  27.3526960  10.2100680
  62.7845760  27.9958800  10.7782260  60.0792860  21.0457140  12.5052730
  60.6307450  21.1552480  11.7305980  60.5936370  21.4194740  13.2207960
  69.9231550  31.5313360  14.5516000  69.4462110  32.3385550  14.3588610
  69.2393340  30.8791690  14.7042210  60.9264370  27.6963180  17.5400700
  60.0292900  27.9203150  17.7874100  60.9517240  27.8198120  16.5912100
  67.9669590  24.5456300   3.4541960  68.4062870  23.7078730   3.3079780
  68.6798010  25.1785700   3.5406100  59.7535590  24.5676500  16.1158070
  59.6143360  25.4399300  16.4845470  58.8716950  24.2249310  15.9706010
  66.0764970  29.4852370   7.4223200  66.5160880  30.2276700   7.0078590
  66.0151860  29.7278940   8.3462160  61.5515940  30.5098200  18.3243220
  61.5231370  30.9141150  17.4571650  61.3880910  29.5808560  18.1614820
  71.5486730  15.7999110   1.7683000  71.2359390  15.8925940   2.6682070
  72.3099200  16.3780140   1.7180430  58.0668870  23.1658910   6.2260340
  57.9466470  23.8921000   5.6141610  57.7569760  22.3961820   5.7488250
  73.5030760  31.2925300  19.6207390  73.9790480  31.7708190  20.2996470
  74.1237920  31.2242790  18.8952890  55.7054240  26.3374050  12.0328980
  55.7834660  26.4722820  11.0884700  56.3195920  25.6289940  12.2257100
  56.9501870  28.0374240   8.4435160  56.5429950  28.1788830   7.5888760
  57.8414880  27.7534400   8.2406370  72.9064010  28.4838150  16.7807400
  73.0327070  28.2450030  15.8624580  72.9485390  27.6522690  17.2529480
  66.7680750  32.1866150  15.3502210  67.2825420  32.0974160  16.1524640
  65.9249830  32.5325850  15.6430120  68.7435150  32.4721490   4.7786210
  68.5836290  32.1824430   5.6768040  68.5781860  31.6961620   4.2431440
  61.2223530  32.2520020   6.5557830  61.0466010  31.3355560   6.3425630
  60.3679270  32.6107310   6.7955630  68.4461280  29.9809050   3.3384210
  67.7526440  29.9786340   2.6786490  69.1884140  29.5568370   2.9078380
  68.0111210  31.6071760   7.4132700  68.4668160  30.8261140   7.7271320
  68.3503730  32.3178580   7.9573880  72.7588020  20.5370610  17.7457140
  72.1432290  21.0450280  17.2172600  72.4384440  19.6368940  17.6883080
  55.7613760  27.3788220  14.5723440  55.9244800  26.9093580  13.7542810
  56.2266210  26.8711780  15.2372280  60.5332530  16.5093980   9.6084010
  60.0900680  17.2903520   9.2768530  61.0917520  16.8323870  10.3154950
  64.8202340  19.3762500  15.2119330  64.3581710  19.5845520  16.0239270
  64.4180450  18.5621850  14.9090000  69.8206850  20.5971450  16.3415990
  68.9700440  20.2977200  16.6625060  69.6608640  20.8413460  15.4299810
  66.9156560  22.0973200  18.4414780  67.2409970  21.2636950  18.1017010
  67.7036890  22.6201720  18.5893110  63.6491350  16.1304680   4.4889840
  63.0245530  16.1264550   5.2143150  63.5621470  15.2635640   4.0925810
  62.5708430  17.0541310  11.4673610  62.8680760  17.9604140  11.3865630
  63.1193990  16.5660090  10.8533180  60.3246750  21.6327550   7.3365260
  60.0987670  21.4164720   8.2411880  59.5439280  22.0656010   6.9911230
  67.5544510  21.6390920   5.9355910  66.9553400  22.3626720   5.7519530
  68.1024120  21.5767700   5.1532360  62.7645960  22.5313130  18.0025530
  62.6689560  21.5907860  17.8525930  63.6077940  22.7528200  17.6073600
  66.1609380  20.2754460   7.9659190  66.5538950  20.5926660   7.1527880
  66.5226230  19.3966340   8.0803710  57.8956500  18.9426800  16.1559310
  57.5019890  19.7902010  16.3632090  57.2074900  18.3053170  16.3467950
  64.4701550  19.0261770  19.2256050  63.7799870  18.8333970  19.8602140
  65.2133850  19.3096410  19.7580350  55.1973550  16.8655260  10.1889390
  54.9086600  17.4358120  10.9014370  55.9419310  16.3859710  10.5520620
  66.7464520  22.8660210  12.0609970  66.0145640  23.3747020  12.4100070
  66.3488860  22.0490190  11.7598750  63.1841910  19.5414410  10.4662460
  63.1877970  19.1004360   9.6167000  64.0793030  19.8631740  10.5734280
  59.0344290  19.4240900   9.4256670  58.6944340  19.9016130  10.1823720
  58.2721610  18.9706020   9.0657770  63.2462060  20.5426490   3.4569220
  63.3674880  20.5012970   4.4055040  62.8610570  21.4050640   3.3015950
  67.2090430  18.3193890  11.4732910  67.2263170  18.7702540  12.3174760
  66.9606010  17.4199530  11.6866350  62.2583560  22.8527630   2.8552520
  61.6900460  22.4045880   2.2288430  62.9672560  23.2120410   2.3217670
  70.6361180  15.7326070  17.3119290  70.9606950  15.0015730  17.8377270
  70.6717690  15.4139710  16.4100280  57.3352740  26.7539650  16.7319250
  56.9507530  26.1133320  17.3302210  57.6464930  27.4575770  17.3013980
  63.4849880  23.6016190  12.2127870  63.8520010  23.1274760  12.9589210
  63.2954940  24.4757760  12.5536210  56.3490370  18.3459880   8.3421340
  56.0637290  17.9815550   9.1799960  56.2869230  17.6140340   7.7284480
  61.2749250  22.6424830  14.5312080  60.9706320  23.5216810  14.7562440
  62.2295710  22.7024620  14.5669520  59.8031040  26.8485820   5.1278930
  59.0293300  26.3083440   4.9677650  60.5325670  26.3292430   4.7896690
  70.5619020  25.8451180  10.9205320  71.2818140  26.3406470  10.5301430
  70.3600840  25.1669070  10.2759190  66.0228960  17.2389140   5.0634710
  65.2093570  16.7402310   4.9880020  65.8290910  18.0787390   4.6471060
  65.9437820  25.9160240  16.8074320  65.8775130  24.9955910  16.5531910
  65.3142960  26.0135680  17.5218960  68.7377350  21.6108790   3.3596870
  69.6256970  21.9226020   3.1848210  68.7082440  20.7381040   2.9677450
  59.8468440  26.5166200   8.7657740  60.3647110  25.7134460   8.7114630
  59.3952460  26.4545340   9.6074570  64.7337940  27.7832480   4.0385040
  65.0753640  28.5274710   3.5428360  63.9050650  28.0963600   4.4009870
  57.3312980  23.4827570  15.6783440  56.9727920  24.1481420  16.2656780
  57.0367540  22.6511120  16.0496060  60.5326100  23.9411810  18.5622990
  60.2326240  24.0868990  17.6650810  61.3037340  23.3817100  18.4696380
  65.8754550  28.7380810  16.5578120  65.8899090  27.8061770  16.3397030
  65.1679650  28.8240570  17.1967890  71.0091620  22.9220630   2.8276730
  70.9255340  23.3534850   1.9773170  71.7285810  23.3818980   3.2603550
  72.0865760  25.3788150  15.9046700  71.3613950  25.9716930  15.7076090
  72.6141220  25.3711690  15.1060070  72.0378870  29.7762890   5.5558860
  71.3955030  29.1218510   5.8302580  71.6509530  30.1817980   4.7799530
  67.6165350  27.1048320   9.4030550  67.9689170  26.5076450   8.7431920
  66.7327680  26.7792550   9.5738800  63.7028630  27.8646010   6.8100960
  64.3899760  28.4115220   7.1908550  62.9161050  28.4086740   6.8450570
  55.8421030  23.4818830   2.3018040  56.7115880  23.7643630   2.5853960
  55.3511350  24.2954700   2.1866850  63.0055840  24.8692040   6.4226320
  63.4618620  25.6797290   6.6486510  62.6544050  24.5515180   7.2544810
  65.3088450  30.3798380  13.6518620  65.9530670  30.5857760  14.3292040
  65.6717890  29.6186780  13.1989470  58.9067620  15.2129690   6.8948840
  58.7782250  15.2047590   7.8433760  58.0829640  15.5512780   6.5439850
  66.5820530  28.3830730  12.3696070  67.2242760  27.6823890  12.4828240
  67.1069880  29.1629170  12.1892960  68.3558150  29.1825630  15.5732130
  68.6914390  29.7692320  16.2510050  67.4358490  29.0518340  15.8029920
  56.2092280  32.6946210   2.8679670  56.5689920  33.2935550   2.2136940
  56.0684620  33.2406100   3.6414700  55.9061550  16.9720810  16.3555540
  55.1920070  17.1717730  16.9608150  56.3256590  16.1960380  16.7270340
  70.0092500  26.5851290   3.7549370  69.7214200  27.0463980   4.5427250
  70.8044670  26.1249060   4.0233590  56.1934140  30.9601070  17.3422070
  56.3025260  30.0195810  17.2017460  55.5414700  31.2255820  16.6935800
  64.1846730  29.2316960  18.7420190  63.8643600  28.5126200  19.2865880
  63.5105090  29.9072030  18.8156250  62.2260900  30.0777410   3.6853340
  62.2171000  30.8107100   3.0697850  61.3059260  29.8308990   3.7780300
  57.8267540  25.2992300   4.4300100  57.2195490  26.0391200   4.4395400
  58.3016890  25.3891660   3.6038300  67.4000330  19.4643120  14.1056990
  67.7681150  18.6438330  14.4336560  66.5398530  19.5245010  14.5212640
  70.7662360  18.4200060   4.9144550  70.1375520  18.5245730   4.2002780
  70.2714280  18.6396840   5.7038430  62.7346390  20.6986010   6.3302430
  62.0262540  21.1672350   6.7716040  63.0190870  20.0408020   6.9647620
  64.3602320  22.1182710  14.3294960  64.8587570  22.5928530  14.9946810
  64.5025270  21.1946230  14.5364990  66.7661820  17.4236670   7.7698220
  66.6429600  17.4422800   6.8207730  67.7146380  17.4715610   7.8896620
  63.8538610  32.6591970   7.0426200  64.1080110  32.6213360   6.1205570
  62.9051090  32.5325300   7.0354450  60.9381410  19.0071090   3.7053140
  61.7871940  19.4441240   3.6393330  60.5712680  19.3191350   4.5325200
  71.5669180  18.3350670  15.1723350  71.0642780  19.0756070  15.5117160
  72.3825840  18.7234670  14.8560140  69.8591190  23.5783850   8.6184710
  68.9181330  23.5934080   8.7932400  70.1735260  22.7919810   9.0645010
  58.5319590  22.6928520   2.8621560  58.6123180  21.7456030   2.9738960
  59.4239340  23.0235400   2.9682220  71.8616770  30.7492700  10.2938970
  71.9864190  31.5723870  10.7662780  72.7282330  30.5383430   9.9463120
  59.3334300  32.8423910   9.9656100  60.0696780  32.2939370  10.2364670
  59.7175220  33.7079920   9.8262090  56.2179780  28.9097480   5.8397610
  55.2919560  29.1518620   5.8303020  56.6836210  29.7371740   5.7182360
  58.3392580  32.0269980  19.1541680  59.1405310  32.3482030  19.5677080
  57.8244400  31.6665560  19.8761590  67.1757210  28.1349850  19.1017090
  66.5695370  28.1581450  18.3612840  66.8711320  27.4032890  19.6384340
  68.6057580  31.8630140  17.7126500  69.5579330  31.7788160  17.6626740
  68.4585800  32.5271850  18.3860290  71.4966780  31.2424350   3.2118410
  71.2108290  30.8289490   2.3972590  71.2986330  32.1712060   3.0918930
  56.0590390  24.5143440  18.0977730  56.5629410  23.9350720  18.6693960
  55.3197810  24.7983670  18.6354100  63.1128330  25.9214430  17.6313250
  62.3474000  26.4899430  17.5467920  63.2944290  25.6290640  16.7381480
  66.2016740  26.2977660   2.2566010  65.6526840  26.7446960   2.9008750
  66.8236000  25.7926910   2.7803680  70.2551680  27.6519760  18.1888270
  70.9961150  27.9895520  17.6855730  69.4924360  27.8211820  17.6358040
  58.0913470  22.6573030  18.9927800  58.1318810  22.3586900  19.9013030
  58.9458970  23.0580640  18.8335320  61.8691860  25.2568580   4.1531310
  62.2908280  25.0908450   4.9962700  61.9942700  24.4468810   3.6586450
  60.0319280  21.2365130  16.9602290  59.5015740  20.7456080  16.3325630
  60.7007350  21.6649330  16.4260220  68.9297340  25.7034590  16.7243480
  69.3438360  25.8579670  17.5733900  67.9948340  25.8289810  16.8869260
  69.4019510  23.0430750  18.7282630  69.9840280  22.2883070  18.6403110
  69.5781280  23.5738190  17.9514110  60.5191580  18.2027500  17.0399580
  60.4248450  17.5848250  16.3150450  59.9388970  18.9293790  16.8129490
  63.2853020  16.7600740  14.0726970  62.8370320  16.7825000  13.2272520
  62.6518220  16.3619760  14.6697270  63.6912570  25.6555070  14.6939410
  64.1100680  26.4987800  14.5215650  62.7721200  25.7927110  14.4646190
  66.0276470  23.3871250  16.0777250  66.1472680  22.7912390  16.8172090
  66.8870470  23.4240940  15.6578550  68.3664370  23.9408440  14.6539760
  67.8399590  24.4651060  14.0504900  68.7095710  24.5735830  15.2849490
  61.5419990  31.9608080  15.8097140  61.0041080  32.6854140  15.4905840
  61.7953950  31.4838420  15.0194480  62.7945240  19.9292600  17.3353070
  63.3844930  19.6208450  18.0230890  61.9765480  19.4572350  17.4912970
  67.6138670  19.5458410  17.5686090  66.9254190  18.8839950  17.5036080
  68.3344690  19.0996680  18.0134550  68.2439070  16.1410040   3.6276350
  68.5241360  15.2977940   3.9835770  67.4704800  16.3733150   4.1415100
  64.3982200  33.1959290  16.0683790  64.3240900  34.0994430  16.3756160
  63.4961040  32.8771190  16.0405860  64.9467530  32.3617800   3.6910150
  65.8418320  32.7002770   3.7128910  64.9785160  31.6397210   3.0634430
  58.5863690  27.7344850   1.9197150  59.0238560  28.2774520   2.5754730
  59.0711420  26.9091800   1.9293490  55.8009490  30.5233880   9.3717410
  56.1312500  29.6554940   9.1396050  56.2300490  30.7292400  10.2022370
  60.3971410  28.8542890   7.0319380  60.0966950  28.7307860   7.9323290
  60.2908900  27.9951480   6.6235110  56.2899700  31.3904470  12.1099040
  55.8530690  31.5705270  12.9423190  56.8577380  32.1479090  11.9680760
  71.9261880  30.8921470  16.3976350  71.3263870  30.9514030  15.6540270
  72.0555780  29.9526450  16.5273200  72.6219790  25.3786770   4.2380260
  73.3838700  25.9483420   4.3439950  72.6374160  24.8113970   5.0088570
  56.1224130  23.9024700   8.4687920  55.4672970  23.6336340   7.8247620
  56.9602080  23.7929180   8.0189900  73.6279760  26.2336870   9.0822190
  73.9988590  25.4504190   8.6758160  74.2681690  26.9225970   8.9039490
  70.6113520  27.6173450  14.4952510  69.7973360  28.0470610  14.7578300
  71.0187720  28.2291860  13.8821560  69.0714570  18.6965990   2.6906410
  69.4899450  18.5096970   1.8503070  68.7650630  17.8445040   3.0009340
  72.5704300  23.6090130   6.3882210  72.1947900  22.8418060   5.9563500
  71.8407420  23.9912830   6.8757140  57.1600060  24.2877270  13.0091260
  57.5273100  24.2004670  13.8887280  56.5910880  23.5243820  12.9098120
  71.9603920  22.7561650  16.0221730  71.7290010  22.5274400  15.1219680
  72.2208470  23.6761200  15.9766620  56.7116060  21.1986360  16.9149680
  55.8172110  21.1653120  17.2543390  57.2513610  21.3973150  17.6800930
  70.3991990  17.9818080  18.8001430  71.2762170  17.9901480  19.1835430
  70.4112830  17.2448920  18.1893780  55.3362210  21.1123630   4.4113250
  54.4326290  21.3753830   4.2364910  55.8202830  21.3834800   3.6313210
  71.8455260  21.8347620   9.6889450  72.3692740  21.3410270   9.0579620
  72.4314680  21.9697980  10.4337020  72.0244980  21.9187490  13.2109000
  71.0747690  21.8851030  13.3253990  72.2057990  22.8287600  12.9758770
  57.8789420  20.1689170   2.3207630  58.5881120  19.7472390   1.8354910
  57.1629360  20.2364400   1.6890980  71.3355230  21.0920970   5.6281860
  71.8314350  20.8591840   6.4130740  71.1371300  20.2532810   5.2119500
  57.2155770  15.4734690  11.2632900  57.8631960  14.9232070  10.8228060
  57.6357610  15.7277840  12.0848710  72.7642390  19.7281920   8.1619540
  72.6541670  19.5737960   9.1001810  73.5249980  19.2002860   7.9194950
  71.1108110  15.6676050  14.6202540  71.7480330  16.2810190  14.9861730
  71.2583000  15.7036710  13.6751770  73.7271150  18.3300500   4.0282390
  72.9322650  18.2645620   4.5575300  73.9314430  19.2651140   4.0167740
  70.6689570  32.3692050   8.0220780  71.2648640  32.0476620   7.3455200
  70.9267720  31.8963870   8.8134050  56.9687770  15.6290360  14.0058220
  56.6202590  16.0854180  14.7716400  56.6375470  14.7347490  14.0880650
  58.5752140  28.8009960  18.1711410  58.5321770  28.4302870  19.0525870
  58.7063150  29.7387530  18.3113230  62.2758170  30.3569550  13.7721130
  62.0349530  30.6244110  12.8851650  63.2160810  30.5275280  13.8271990
  64.4812590  16.8202240  17.5277640  64.4201480  17.4124070  18.2773050
  65.4212970  16.7128200  17.3827900  67.1187150  16.4772300  17.1669930
  67.7327560  16.7951590  16.5051010  67.6636710  15.9920890  17.7865790
  73.5362330  32.3763930  14.5731770  73.0420610  32.7732800  13.8558900
  72.9275620  31.7513140  14.9669050  57.6408410  15.1566560  17.2808990
  58.1891400  14.9754610  16.5175100  57.7063720  14.3660670  17.8165300
  58.4140170  31.7472210  15.2909190  57.8200490  31.6156910  16.0299230
  58.4064010  30.9110350  14.8251290  67.8595190  15.0404440  13.4939220
  66.9855030  15.3739550  13.2912150  67.7505940  14.5677620  14.3191090
  68.7667170  17.2475310  14.8780940  68.4380530  16.4327070  14.4982670
  69.7149470  17.2045120  14.7546630  71.2201780  33.0187350  11.8518510
  70.7604750  33.7703160  11.4776530  70.5914240  32.2993820  11.7933310
  58.0452400  29.1130590  14.2417230  57.3186460  28.4935880  14.1743180
  58.1061550  29.5071200  13.3715310  61.6497500  31.3275590  11.0266640
  62.1662520  30.7162950  10.5014900  62.2994880  31.8304370  11.5177650
  64.3893000  32.2184080  11.8535620  64.6770810  31.9638380  10.9768630
  64.9016220  31.6661440  12.4441190  65.6070010  15.9574280  12.4332130
  64.8241800  16.4319780  12.7128890  65.3132940  15.0529110  12.3245310
  70.1591080  16.6597380  10.4781220  70.5999170  16.6042480   9.6302820
  69.8898670  17.5755390  10.5491400  72.0229650  16.2912620   8.4890040
  71.9618050  15.3473840   8.3421060  72.8021680  16.3992710   9.0343500
  56.3282400  32.4304980   7.4513990  56.1604440  31.7975660   8.1495880
  55.4616910  32.6364380   7.1008180  56.9510420  16.2621760   4.9545850
  57.7089780  16.3750640   4.3809880  56.4887590  17.0990960   4.9089280
  63.4924230  18.3761030   7.9448160  62.6798740  18.0017920   7.6044040
  63.9965870  17.6206110   8.2469350  67.9949210  15.0403480   9.1831230
  68.5978580  15.6123690   9.6579750  67.2542200  15.6042920   8.9605130
  71.1383810  15.4425040   4.4571510  71.3334440  16.3408490   4.7238940
  70.3513680  15.2112120   4.9504460  57.9345100  31.1238210   4.8964130
  57.4092720  31.5046240   4.1926090  57.8589680  31.7488980   5.6173840
  59.3235570  16.7885810   3.4947820  59.8528330  16.0015610   3.3655770
  59.9563890  17.4677000   3.7283350  61.5173410  16.5260950   6.5493210
  60.8876150  15.8248260   6.7163340  60.9778550  17.2865080   6.3326370
  64.4565360  33.1400180  19.2203820  65.3832670  32.9044450  19.2639780
  64.4415790  33.9672180  18.7389850  72.6910420  32.6825750   6.2178070
  72.8662610  31.9963490   5.5738990  71.9931990  33.2072800   5.8254740
  61.6428970  15.8044930  18.9845700  61.3613240  16.3078530  18.2206520
  62.0248670  15.0066680  18.6187830  60.5338070  33.0720590   3.7713380
  61.2656890  32.7879870   3.2237270  60.7931740  32.8333870   4.6612760
  59.6952860  29.1885320   3.7759710  59.0661740  29.6570420   4.3245540
  59.8100690  28.3434540   4.2105900  68.2444430  15.2198510  19.5626170
  68.1309880  15.5393120  20.4577690  69.0614170  15.6211020  19.2663450
  71.0242920  32.3670040  19.0444860  71.8168240  31.8719270  18.8370820
  71.3176070  33.0460180  19.6520470  67.1502580   4.4647490  83.7978360
  67.0696630   3.5502100  83.5270070  66.7367000   4.9614560  83.0918070
  65.2820620   6.2426510  85.6787630  64.5062720   5.7626950  85.9686200
  65.9333550   5.5632160  85.5043790  59.2986450   6.5546320  86.5563390
  58.4671330   6.2995030  86.9559900  59.9067430   6.6257090  87.2921310
  69.3028050  10.6486700  84.4586760  68.8409580   9.8773940  84.7873930
  70.1153600  10.6752770  84.9639210  59.2787710  10.5886410  86.7521410
  59.5815750   9.6984150  86.5731630  60.0231300  11.1456630  86.5243660
  55.6711410   4.1153860  86.2245480  56.2427520   3.3476060  86.2249120
  55.6712950   4.4142620  85.3152090  65.5291360  12.9344710  84.0790750
  64.9102800  13.3902210  83.5085190  66.3843140  13.0896170  83.6780450
  64.7229610   8.9183700  85.6857790  64.6537890   7.9773640  85.5246920
  65.4849470   9.0085110  86.2580360  61.7247520   3.0666080  85.7069340
  62.2325740   3.5647050  86.3474360  62.2560760   2.2901280  85.5308700
  66.3954710   7.8183950  81.4722660  65.7771980   8.2833400  80.9085380
  66.9077960   8.5111430  81.8892170  61.2586470   7.3459820  88.1506260
  60.9255850   7.9728740  88.7927330  61.4353150   7.8721700  87.3707930
  60.4705570   9.3140620  89.9655440  61.0879570   9.9891700  89.6839890
  59.6098690   9.7228600  89.8742940  55.7637910   8.5040480  78.8462290
  55.3865890   8.9927580  78.1147190  56.0210980   9.1765760  79.4768820
  71.3883160  10.7780030  87.8810080  70.7046680  11.4479140  87.8726750
  71.9277450  10.9760680  87.1154940  68.9241900  12.6224160  86.5955260
  68.9369060  12.2186450  85.7277520  68.3717120  13.3971450  86.4916690
  70.2187320   9.3440380  81.6845430  70.1083650   8.4014710  81.8094850
  70.2155570   9.7056020  82.5708190  68.3227340   7.5254000  87.9237870
  68.7396130   7.3114110  87.0891330  69.0467160   7.7826790  88.4946490
  65.7607600   4.9705700  81.0407920  64.8336880   4.9043080  81.2696390
  65.9132420   5.9085830  80.9263160  72.2689440   5.9241220  88.0154110
  71.4408070   5.9934310  87.5404240  72.8639920   6.5095530  87.5469940
  69.7904890   6.5326000  81.5443170  69.1717310   6.1945550  80.8969470
  69.7729340   5.8885760  82.2522360  69.2331450   2.7110540  88.9608980
  68.8202630   3.5364250  89.2148970  68.5007400   2.1255580  88.7685340
  61.3664240   5.4970440  83.8227650  60.9621240   4.7847690  83.3273550
  61.4527360   5.1523680  84.7115690  61.8345940   9.1838000  85.9866860
  61.5374230   8.5783470  85.3074640  62.7845760   9.2215310  85.8756220
  60.0792860   2.2713650  87.6026690  60.6307450   2.3808990  86.8279940
  60.5936370   2.6451250  88.3181920  69.9231550  12.7569870  89.6489960
  69.4462110  13.5642060  89.4562570  69.2393340  12.1048200  89.8016170
  60.9264370   8.9219690  92.6374660  60.0292900   9.1459660  92.8848060
  60.9517240   9.0454630  91.6886060  67.9669590   5.7712810  78.5515920
  68.4062870   4.9335240  78.4053740  68.6798010   6.4042210  78.6380060
  59.7535590   5.7933010  91.2132030  59.6143360   6.6655810  91.5819430
  58.8716950   5.4505820  91.0679970  66.0764970  10.7108880  82.5197160
  66.5160880  11.4533210  82.1052550  66.0151860  10.9535450  83.4436120
  61.5515940  11.7354710  93.4217180  61.5231370  12.1397660  92.5545610
  61.3880910  10.8065070  93.2588780  58.0668870   4.3915420  81.3234300
  57.9466470   5.1177510  80.7115570  57.7569760   3.6218330  80.8462210
  55.7054240   7.5630560  87.1302940  55.7834660   7.6979330  86.1858660
  56.3195920   6.8546450  87.3231060  56.9501870   9.2630750  83.5409120
  56.5429950   9.4045340  82.6862720  57.8414880   8.9790910  83.3380330
  72.9064010   9.7094660  91.8781360  73.0327070   9.4706540  90.9598540
  72.9485390   8.8779200  92.3503440  66.7680750  13.4122660  90.4476170
  67.2825420  13.3230670  91.2498600  65.9249830  13.7582360  90.7404080
  68.7435150  13.6978000  79.8760170  68.5836290  13.4080940  80.7742000
  68.5781860  12.9218130  79.3405400  61.2223530  13.4776530  81.6531790
  61.0466010  12.5612070  81.4399590  60.3679270  13.8363820  81.8929590
  68.4461280  11.2065560  78.4358170  67.7526440  11.2042850  77.7760450
  69.1884140  10.7824880  78.0052340  68.0111210  12.8328270  82.5106660
  68.4668160  12.0517650  82.8245280  68.3503730  13.5435090  83.0547840
  55.7613760   8.6044730  89.6697400  55.9244800   8.1350090  88.8516770
  56.2266210   8.0968290  90.3346240  69.8206850   1.8227960  91.4389950
  68.9700440   1.5233710  91.7599020  69.6608640   2.0669970  90.5273770
  66.9156560   3.3229710  93.5388740  67.2409970   2.4893460  93.1990970
  67.7036890   3.8458230  93.6867070  60.3246750   2.8584060  82.4339220
  60.0987670   2.6421230  83.3385840  59.5439280   3.2912520  82.0885190
  67.5544510   2.8647430  81.0329870  66.9553400   3.5883230  80.8493490
  68.1024120   2.8024210  80.2506320  62.7645960   3.7569640  93.0999490
  62.6689560   2.8164370  92.9499890  63.6077940   3.9784710  92.7047560
  55.3843780   2.0331890  76.4966070  55.3018450   2.9762650  76.6381060
  55.0326840   1.8906800  75.6178420  66.7464520   4.0916720  87.1583930
  66.0145640   4.6003530  87.5074030  66.3488860   3.2746700  86.8572710
  63.2462060   1.7683000  78.5543180  63.3674880   1.7269480  79.5029000
  62.8610570   2.6307150  78.3989910  62.2583560   4.0784140  77.9526480
  61.6900460   3.6302390  77.3262390  62.9672560   4.4376920  77.4191630
  57.3352740   7.9796160  91.8293210  56.9507530   7.3389830  92.4276170
  57.6464930   8.6832280  92.3987940  63.4849880   4.8272700  87.3101830
  63.8520010   4.3531270  88.0563170  63.2954940   5.7014270  87.6510170
  61.2749250   3.8681340  89.6286040  60.9706320   4.7473320  89.8536400
  62.2295710   3.9281130  89.6643480  59.8031040   8.0742330  80.2252890
  59.0293300   7.5339950  80.0651610  60.5325670   7.5548940  79.8870650
  70.5619020   7.0707690  86.0179280  71.2818140   7.5662980  85.6275390
  70.3600840   6.3925580  85.3733150  65.9437820   7.1416750  91.9048280
  65.8775130   6.2212420  91.6505870  65.3142960   7.2392190  92.6192920
  68.7377350   2.8365300  78.4570830  69.6256970   3.1482530  78.2822170
  68.7082440   1.9637550  78.0651410  59.8468440   7.7422710  83.8631700
  60.3647110   6.9390970  83.8088590  59.3952460   7.6801850  84.7048530
  64.7337940   9.0088990  79.1359000  65.0753640   9.7531220  78.6402320
  63.9050650   9.3220110  79.4983830  57.3312980   4.7084080  90.7757400
  56.9727920   5.3737930  91.3630740  57.0367540   3.8767630  91.1470020
  60.5326100   5.1668320  93.6596950  60.2326240   5.3125500  92.7624770
  61.3037340   4.6073610  93.5670340  65.8754550   9.9637320  91.6552080
  65.8899090   9.0318280  91.4370990  65.1679650  10.0497080  92.2941850
  71.0091620   4.1477140  77.9250690  70.9255340   4.5791360  77.0747130
  71.7285810   4.6075490  78.3577510  72.0865760   6.6044660  91.0020660
  71.3613950   7.1973440  90.8050050  72.6141220   6.5968200  90.2034030
  72.0378870  11.0019400  80.6532820  71.3955030  10.3475020  80.9276540
  71.6509530  11.4074490  79.8773490  67.6165350   8.3304830  84.5004510
  67.9689170   7.7332960  83.8405880  66.7327680   8.0049060  84.6712760
  63.7028630   9.0902520  81.9074920  64.3899760   9.6371730  82.2882510
  62.9161050   9.6343250  81.9424530  55.8421030   4.7075340  77.3992000
  56.7115880   4.9900140  77.6827920  55.3511350   5.5211210  77.2840810
  63.0055840   6.0948550  81.5200280  63.4618620   6.9053800  81.7460470
  62.6544050   5.7771690  82.3518770  65.3088450  11.6054890  88.7492580
  65.9530670  11.8114270  89.4266000  65.6717890  10.8443290  88.2963430
  66.5820530   9.6087240  87.4670030  67.2242760   8.9080400  87.5802200
  67.1069880  10.3885680  87.2866920  70.4276250   9.8935860  77.1909170
  70.2013830   9.1766300  77.7833810  70.0372450   9.6448300  76.3530920
  68.3558150  10.4082140  90.6706090  68.6914390  10.9948830  91.3484010
  67.4358490  10.2774850  90.9003880  56.2092280  13.9202720  77.9653630
  56.5689920  14.5192060  77.3110900  56.0684620  14.4662610  78.7388660
  70.0092500   7.8107800  78.8523330  69.7214200   8.2720490  79.6401210
  70.8044670   7.3505570  79.1207550  56.1934140  12.1857580  92.4396030
  56.3025260  11.2452320  92.2991420  55.5414700  12.4512330  91.7909760
  62.2260900  11.3033920  78.7827300  62.2171000  12.0363610  78.1671810
  61.3059260  11.0565500  78.8754260  57.8267540   6.5248810  79.5274060
  57.2195490   7.2647710  79.5369360  58.3016890   6.6148170  78.7012260
  65.2120500  11.3662160  77.4452490  65.3132480  11.1626150  76.5154470
  64.3122240  11.1120440  77.6500270  64.3602320   3.3439220  89.4268920
  64.8587570   3.8185040  90.0920770  64.5025270   2.4202740  89.6338950
  63.8538610  13.8848480  82.1400160  64.1080110  13.8469870  81.2179530
  62.9051090  13.7581810  82.1328410  69.8591190   4.8040360  83.7158670
  68.9181330   4.8190590  83.8906360  70.1735260   4.0176320  84.1618970
  59.8372830   6.4859960  77.2762630  60.6036100   6.3741320  77.8388060
  59.9147520   5.7897930  76.6239400  58.5319590   3.9185030  77.9595520
  58.6123180   2.9712540  78.0712920  59.4239340   4.2491910  78.0656180
  71.8616770  11.9749210  85.3912930  71.9864190  12.7980380  85.8636740
  72.7282330  11.7639940  85.0437080  59.3334300  14.0680420  85.0630060
  60.0696780  13.5195880  85.3338630  59.7175220  14.9336430  84.9236050
  56.2179780  10.1353990  80.9371570  55.2919560  10.3775130  80.9276980
  56.6836210  10.9628250  80.8156320  62.4436610  13.2410730  76.8855630
  63.2365220  13.5299560  76.4337420  61.9240960  12.8102900  76.2068110
  68.6057580  13.0886650  92.8100460  69.5579330  13.0044670  92.7600700
  68.4585800  13.7528360  93.4834250  71.4966780  12.4680860  78.3092370
  71.2108290  12.0546000  77.4946550  71.2986330  13.3968570  78.1892890
  56.0590390   5.7399950  93.1951690  56.5629410   5.1607230  93.7667920
  55.3197810   6.0240180  93.7328060  62.9614010   8.4614140  76.7497980
  62.8564650   7.8466490  77.4759360  62.7938230   7.9380030  75.9660990
  63.1128330   7.1470940  92.7287210  62.3474000   7.7155940  92.6441880
  63.2944290   6.8547150  91.8355440  66.2016740   7.5234170  77.3539970
  65.6526840   7.9703470  77.9982710  66.8236000   7.0183420  77.8777640
  70.2551680   8.8776270  93.2862230  70.9961150   9.2152030  92.7829690
  69.4924360   9.0468330  92.7332000  61.8691860   6.4825090  79.2505270
  62.2908280   6.3164960  80.0936660  61.9942700   5.6725320  78.7560410
  60.0319280   2.4621640  92.0576250  59.5015740   1.9712590  91.4299590
  60.7007350   2.8905840  91.5234180  64.3819500   5.5062700  76.4982370
  64.9025160   4.7911720  76.1323520  65.0287900   6.1448570  76.7982880
  68.9297340   6.9291100  91.8217440  69.3438360   7.0836180  92.6707860
  67.9948340   7.0546320  91.9843220  69.4019510   4.2687260  93.8256590
  69.9840280   3.5139580  93.7377070  69.5781280   4.7994700  93.0488070
  63.6912570   6.8811580  89.7913370  64.1100680   7.7244310  89.6189610
  62.7721200   7.0183620  89.5620150  66.0276470   4.6127760  91.1751210
  66.1472680   4.0168900  91.9146050  66.8870470   4.6497450  90.7552510
  68.3664370   5.1664950  89.7513720  67.8399590   5.6907570  89.1478860
  68.7095710   5.7992340  90.3823450  60.7650760   2.5558320  76.1963430
  60.5639820   1.6925680  76.5576770  60.5942810   2.4691680  75.2585030
  61.5419990  13.1864590  90.9071100  61.0041080  13.9110650  90.5879800
  61.7953950  12.7094930  90.1168440  64.3982200  14.4215800  91.1657750
  64.3240900  15.3250940  91.4730120  63.4961040  14.1027700  91.1379820
  64.9467530  13.5874310  78.7884110  65.8418320  13.9259280  78.8102870
  64.9785160  12.8653720  78.1608390  58.5863690   8.9601360  77.0171110
  59.0238560   9.5031030  77.6728690  59.0711420   8.1348310  77.0267450
  55.8009490  11.7490390  84.4691370  56.1312500  10.8811450  84.2370010
  56.2300490  11.9548910  85.2996330  60.3971410  10.0799400  82.1293340
  60.0966950   9.9564370  83.0297250  60.2908900   9.2207990  81.7209070
  56.2899700  12.6160980  87.2073000  55.8530690  12.7961780  88.0397150
  56.8577380  13.3735600  87.0654720  71.9261880  12.1177980  91.4950310
  71.3263870  12.1770540  90.7514230  72.0555780  11.1782960  91.6247160
  73.1663330   9.8595800  76.8320020  72.3356290   9.9272450  77.3027250
  73.3435160  10.7499920  76.5286880  72.6219790   6.6043280  79.3354220
  73.3838700   7.1739930  79.4413910  72.6374160   6.0370480  80.1062530
  56.1224130   5.1281210  83.5661880  55.4672970   4.8592850  82.9221580
  56.9602080   5.0185690  83.1163860  73.6279760   7.4593380  84.1796150
  73.9988590   6.6760700  83.7732120  74.2681690   8.1482480  84.0013450
  70.6113520   8.8429960  89.5926470  69.7973360   9.2727120  89.8552260
  71.0187720   9.4548370  88.9795520  72.6738960   6.8977650  76.4926740
  72.9487800   7.8056530  76.3645960  72.4849700   6.8340180  77.4288730
  72.5704300   4.8346640  81.4856170  72.1947900   4.0674570  81.0537460
  71.8407420   5.2169340  81.9731100  57.1600060   5.5133780  88.1065220
  57.5273100   5.4261180  88.9861240  56.5910880   4.7500330  88.0072080
  71.9603920   3.9818160  91.1195690  71.7290010   3.7530910  90.2193640
  72.2208470   4.9017710  91.0740580  56.7116060   2.4242870  92.0123640
  55.8172110   2.3909630  92.3517350  57.2513610   2.6229660  92.7774890
  55.3362210   2.3380140  79.5087210  54.4326290   2.6010340  79.3338870
  55.8202830   2.6091310  78.7287170  71.8455260   3.0604130  84.7863410
  72.3692740   2.5666780  84.1553580  72.4314680   3.1954490  85.5310980
  72.0244980   3.1444000  88.3082960  71.0747690   3.1107540  88.4227950
  72.2057990   4.0544110  88.0732730  71.3355230   2.3177480  80.7255820
  71.8314350   2.0848350  81.5104700  71.1371300   1.4789320  80.3093460
  70.6689570  13.5948560  83.1194740  71.2648640  13.2733130  82.4429160
  70.9267720  13.1220380  83.9108010  62.2758170  11.5826060  88.8695090
  62.0349530  11.8500620  87.9825610  63.2160810  11.7531790  88.9245950
  73.5362330  13.6020440  89.6705730  73.0420610  13.9989310  88.9532860
  72.9275620  12.9769650  90.0643010  58.4140170  12.9728720  90.3883150
  57.8200490  12.8413420  91.1273190  58.4064010  12.1366860  89.9225250
  71.2201780  14.2443860  86.9492470  70.7604750  14.9959670  86.5750490
  70.5914240  13.5250330  86.8907270  58.0452400  10.3387100  89.3391190
  57.3186460   9.7192390  89.2717140  58.1061550  10.7327710  88.4689270
  61.6497500  12.5532100  86.1240600  62.1662520  11.9419460  85.5988860
  62.2994880  13.0560880  86.6151610  64.3893000  13.4440590  86.9509580
  64.6770810  13.1894890  86.0742590  64.9016220  12.8917950  87.5415150
  56.3282400  13.6561490  82.5487950  56.1604440  13.0232170  83.2469840
  55.4616910  13.8620890  82.1982140  57.9345100  12.3494720  79.9938090
  57.4092720  12.7302750  79.2900050  57.8589680  12.9745490  80.7147800
  72.6910420  13.9082260  81.3152030  72.8662610  13.2220000  80.6712950
  71.9931990  14.4329310  80.9228700  60.5338070  14.2977100  78.8687340
  61.2656890  14.0136380  78.3211230  60.7931740  14.0590380  79.7586720
  59.6952860  10.4141830  78.8733670  59.0661740  10.8826930  79.4219500
  59.8100690   9.5691050  79.3079860  67.1502580   4.4647490  65.0234870
  67.0696630   3.5502100  64.7526580  66.7367000   4.9614560  64.3174580
  65.2820620   6.2426510  66.9044140  64.5062720   5.7626950  67.1942710
  65.9333550   5.5632160  66.7300300  59.2986450   6.5546320  67.7819900
  58.4671330   6.2995030  68.1816410  59.9067430   6.6257090  68.5177820
  69.3028050  10.6486700  65.6843270  68.8409580   9.8773940  66.0130440
  70.1153600  10.6752770  66.1895720  59.2787710  10.5886410  67.9777920
  59.5815750   9.6984150  67.7988140  60.0231300  11.1456630  67.7500170
  55.6711410   4.1153860  67.4501990  56.2427520   3.3476060  67.4505630
  55.6712950   4.4142620  66.5408600  65.5291360  12.9344710  65.3047260
  64.9102800  13.3902210  64.7341700  66.3843140  13.0896170  64.9036960
  64.7229610   8.9183700  66.9114300  64.6537890   7.9773640  66.7503430
  65.4849470   9.0085110  67.4836870  61.7247520   3.0666080  66.9325850
  62.2325740   3.5647050  67.5730870  62.2560760   2.2901280  66.7565210
  66.3954710   7.8183950  62.6979170  65.7771980   8.2833400  62.1341890
  66.9077960   8.5111430  63.1148680  61.2586470   7.3459820  69.3762770
  60.9255850   7.9728740  70.0183840  61.4353150   7.8721700  68.5964440
  60.4705570   9.3140620  71.1911950  61.0879570   9.9891700  70.9096400
  59.6098690   9.7228600  71.0999450  55.7637910   8.5040480  60.0718800
  55.3865890   8.9927580  59.3403700  56.0210980   9.1765760  60.7025330
  71.3883160  10.7780030  69.1066590  70.7046680  11.4479140  69.0983260
  71.9277450  10.9760680  68.3411450  68.9241900  12.6224160  67.8211770
  68.9369060  12.2186450  66.9534030  68.3717120  13.3971450  67.7173200
  70.2187320   9.3440380  62.9101940  70.1083650   8.4014710  63.0351360
  70.2155570   9.7056020  63.7964700  68.3227340   7.5254000  69.1494380
  68.7396130   7.3114110  68.3147840  69.0467160   7.7826790  69.7203000
  65.7607600   4.9705700  62.2664430  64.8336880   4.9043080  62.4952900
  65.9132420   5.9085830  62.1519670  72.2689440   5.9241220  69.2410620
  71.4408070   5.9934310  68.7660750  72.8639920   6.5095530  68.7726450
  69.7904890   6.5326000  62.7699680  69.1717310   6.1945550  62.1225980
  69.7729340   5.8885760  63.4778870  69.2331450   2.7110540  70.1865490
  68.8202630   3.5364250  70.4405480  68.5007400   2.1255580  69.9941850
  61.3664240   5.4970440  65.0484160  60.9621240   4.7847690  64.5530060
  61.4527360   5.1523680  65.9372200  61.8345940   9.1838000  67.2123370
  61.5374230   8.5783470  66.5331150  62.7845760   9.2215310  67.1012730
  60.0792860   2.2713650  68.8283200  60.6307450   2.3808990  68.0536450
  60.5936370   2.6451250  69.5438430  69.9231550  12.7569870  70.8746470
  69.4462110  13.5642060  70.6819080  69.2393340  12.1048200  71.0272680
  60.9264370   8.9219690  73.8631170  60.0292900   9.1459660  74.1104570
  60.9517240   9.0454630  72.9142570  67.9669590   5.7712810  59.7772430
  68.4062870   4.9335240  59.6310250  68.6798010   6.4042210  59.8636570
  59.7535590   5.7933010  72.4388540  59.6143360   6.6655810  72.8075940
  58.8716950   5.4505820  72.2936480  66.0764970  10.7108880  63.7453670
  66.5160880  11.4533210  63.3309060  66.0151860  10.9535450  64.6692630
  61.5515940  11.7354710  74.6473690  61.5231370  12.1397660  73.7802120
  61.3880910  10.8065070  74.4845290  58.0668870   4.3915420  62.5490810
  57.9466470   5.1177510  61.9372080  57.7569760   3.6218330  62.0718720
  73.5030760  12.5181810  75.9437860  73.9790480  12.9964700  76.6226940
  74.1237920  12.4499300  75.2183360  55.7054240   7.5630560  68.3559450
  55.7834660   7.6979330  67.4115170  56.3195920   6.8546450  68.5487570
  56.9501870   9.2630750  64.7665630  56.5429950   9.4045340  63.9119230
  57.8414880   8.9790910  64.5636840  72.9064010   9.7094660  73.1037870
  73.0327070   9.4706540  72.1855050  72.9485390   8.8779200  73.5759950
  66.7680750  13.4122660  71.6732680  67.2825420  13.3230670  72.4755110
  65.9249830  13.7582360  71.9660590  68.7435150  13.6978000  61.1016680
  68.5836290  13.4080940  61.9998510  68.5781860  12.9218130  60.5661910
  61.2223530  13.4776530  62.8788300  61.0466010  12.5612070  62.6656100
  60.3679270  13.8363820  63.1186100  68.4461280  11.2065560  59.6614680
  67.7526440  11.2042850  59.0016960  69.1884140  10.7824880  59.2308850
  68.0111210  12.8328270  63.7363170  68.4668160  12.0517650  64.0501790
  68.3503730  13.5435090  64.2804350  55.7613760   8.6044730  70.8953910
  55.9244800   8.1350090  70.0773280  56.2266210   8.0968290  71.5602750
  69.8206850   1.8227960  72.6646460  68.9700440   1.5233710  72.9855530
  69.6608640   2.0669970  71.7530280  66.9156560   3.3229710  74.7645250
  67.2409970   2.4893460  74.4247480  67.7036890   3.8458230  74.9123580
  60.3246750   2.8584060  63.6595730  60.0987670   2.6421230  64.5642350
  59.5439280   3.2912520  63.3141700  67.5544510   2.8647430  62.2586380
  66.9553400   3.5883230  62.0750000  68.1024120   2.8024210  61.4762830
  62.7645960   3.7569640  74.3256000  62.6689560   2.8164370  74.1756400
  63.6077940   3.9784710  73.9304070  55.3843780   2.0331890  57.7222580
  55.3018450   2.9762650  57.8637570  55.0326840   1.8906800  56.8434930
  66.7464520   4.0916720  68.3840440  66.0145640   4.6003530  68.7330540
  66.3488860   3.2746700  68.0829220  63.2462060   1.7683000  59.7799690
  63.3674880   1.7269480  60.7285510  62.8610570   2.6307150  59.6246420
  62.2583560   4.0784140  59.1782990  61.6900460   3.6302390  58.5518900
  62.9672560   4.4376920  58.6448140  57.3352740   7.9796160  73.0549720
  56.9507530   7.3389830  73.6532680  57.6464930   8.6832280  73.6244450
  63.4849880   4.8272700  68.5358340  63.8520010   4.3531270  69.2819680
  63.2954940   5.7014270  68.8766680  61.2749250   3.8681340  70.8542550
  60.9706320   4.7473320  71.0792910  62.2295710   3.9281130  70.8899990
  59.8031040   8.0742330  61.4509400  59.0293300   7.5339950  61.2908120
  60.5325670   7.5548940  61.1127160  70.5619020   7.0707690  67.2435790
  71.2818140   7.5662980  66.8531900  70.3600840   6.3925580  66.5989660
  65.9437820   7.1416750  73.1304790  65.8775130   6.2212420  72.8762380
  65.3142960   7.2392190  73.8449430  68.7377350   2.8365300  59.6827340
  69.6256970   3.1482530  59.5078680  68.7082440   1.9637550  59.2907920
  59.8468440   7.7422710  65.0888210  60.3647110   6.9390970  65.0345100
  59.3952460   7.6801850  65.9305040  64.7337940   9.0088990  60.3615510
  65.0753640   9.7531220  59.8658830  63.9050650   9.3220110  60.7240340
  57.3312980   4.7084080  72.0013910  56.9727920   5.3737930  72.5887250
  57.0367540   3.8767630  72.3726530  60.5326100   5.1668320  74.8853460
  60.2326240   5.3125500  73.9881280  61.3037340   4.6073610  74.7926850
  65.8754550   9.9637320  72.8808590  65.8899090   9.0318280  72.6627500
  65.1679650  10.0497080  73.5198360  71.0091620   4.1477140  59.1507200
  70.9255340   4.5791360  58.3003640  71.7285810   4.6075490  59.5834020
  72.0865760   6.6044660  72.2277170  71.3613950   7.1973440  72.0306560
  72.6141220   6.5968200  71.4290540  72.0378870  11.0019400  61.8789330
  71.3955030  10.3475020  62.1533050  71.6509530  11.4074490  61.1030000
  67.6165350   8.3304830  65.7261020  67.9689170   7.7332960  65.0662390
  66.7327680   8.0049060  65.8969270  63.7028630   9.0902520  63.1331430
  64.3899760   9.6371730  63.5139020  62.9161050   9.6343250  63.1681040
  55.8421030   4.7075340  58.6248510  56.7115880   4.9900140  58.9084430
  55.3511350   5.5211210  58.5097320  63.0055840   6.0948550  62.7456790
  63.4618620   6.9053800  62.9716980  62.6544050   5.7771690  63.5775280
  65.3088450  11.6054890  69.9749090  65.9530670  11.8114270  70.6522510
  65.6717890  10.8443290  69.5219940  66.5820530   9.6087240  68.6926540
  67.2242760   8.9080400  68.8058710  67.1069880  10.3885680  68.5123430
  70.4276250   9.8935860  58.4165680  70.2013830   9.1766300  59.0090320
  70.0372450   9.6448300  57.5787430  68.3558150  10.4082140  71.8962600
  68.6914390  10.9948830  72.5740520  67.4358490  10.2774850  72.1260390
  70.0092500   7.8107800  60.0779840  69.7214200   8.2720490  60.8657720
  70.8044670   7.3505570  60.3464060  56.1934140  12.1857580  73.6652540
  56.3025260  11.2452320  73.5247930  55.5414700  12.4512330  73.0166270
  64.1846730  10.4573470  75.0650660  63.8643600   9.7382710  75.6096350
  63.5105090  11.1328540  75.1386720  62.2260900  11.3033920  60.0083810
  62.2171000  12.0363610  59.3928320  61.3059260  11.0565500  60.1010770
  57.8267540   6.5248810  60.7530570  57.2195490   7.2647710  60.7625870
  58.3016890   6.6148170  59.9268770  65.2120500  11.3662160  58.6709000
  65.3132480  11.1626150  57.7410980  64.3122240  11.1120440  58.8756780
  64.3602320   3.3439220  70.6525430  64.8587570   3.8185040  71.3177280
  64.5025270   2.4202740  70.8595460  63.8538610  13.8848480  63.3656670
  64.1080110  13.8469870  62.4436040  62.9051090  13.7581810  63.3584920
  69.8591190   4.8040360  64.9415180  68.9181330   4.8190590  65.1162870
  70.1735260   4.0176320  65.3875480  59.8372830   6.4859960  58.5019140
  60.6036100   6.3741320  59.0644570  59.9147520   5.7897930  57.8495910
  58.5319590   3.9185030  59.1852030  58.6123180   2.9712540  59.2969430
  59.4239340   4.2491910  59.2912690  71.8616770  11.9749210  66.6169440
  71.9864190  12.7980380  67.0893250  72.7282330  11.7639940  66.2693590
  59.3334300  14.0680420  66.2886570  60.0696780  13.5195880  66.5595140
  59.7175220  14.9336430  66.1492560  56.2179780  10.1353990  62.1628080
  55.2919560  10.3775130  62.1533490  56.6836210  10.9628250  62.0412830
  58.3392580  13.2526490  75.4772150  59.1405310  13.5738540  75.8907550
  57.8244400  12.8922070  76.1992060  62.4436610  13.2410730  58.1112140
  63.2365220  13.5299560  57.6593930  61.9240960  12.8102900  57.4324620
  67.1757210   9.3606360  75.4247560  66.5695370   9.3837960  74.6843310
  66.8711320   8.6289400  75.9614810  68.6057580  13.0886650  74.0356970
  69.5579330  13.0044670  73.9857210  68.4585800  13.7528360  74.7090760
  71.4966780  12.4680860  59.5348880  71.2108290  12.0546000  58.7203060
  71.2986330  13.3968570  59.4149400  56.0590390   5.7399950  74.4208200
  56.5629410   5.1607230  74.9924430  55.3197810   6.0240180  74.9584570
  62.9614010   8.4614140  57.9754490  62.8564650   7.8466490  58.7015870
  62.7938230   7.9380030  57.1917500  63.1128330   7.1470940  73.9543720
  62.3474000   7.7155940  73.8698390  63.2944290   6.8547150  73.0611950
  66.2016740   7.5234170  58.5796480  65.6526840   7.9703470  59.2239220
  66.8236000   7.0183420  59.1034150  70.2551680   8.8776270  74.5118740
  70.9961150   9.2152030  74.0086200  69.4924360   9.0468330  73.9588510
  58.0913470   3.8829540  75.3158270  58.1318810   3.5843410  76.2243500
  58.9458970   4.2837150  75.1565790  61.8691860   6.4825090  60.4761780
  62.2908280   6.3164960  61.3193170  61.9942700   5.6725320  59.9816920
  60.0319280   2.4621640  73.2832760  59.5015740   1.9712590  72.6556100
  60.7007350   2.8905840  72.7490690  64.3819500   5.5062700  57.7238880
  64.9025160   4.7911720  57.3580030  65.0287900   6.1448570  58.0239390
  68.9297340   6.9291100  73.0473950  69.3438360   7.0836180  73.8964370
  67.9948340   7.0546320  73.2099730  69.4019510   4.2687260  75.0513100
  69.9840280   3.5139580  74.9633580  69.5781280   4.7994700  74.2744580
  63.6912570   6.8811580  71.0169880  64.1100680   7.7244310  70.8446120
  62.7721200   7.0183620  70.7876660  66.0276470   4.6127760  72.4007720
  66.1472680   4.0168900  73.1402560  66.8870470   4.6497450  71.9809020
  68.3664370   5.1664950  70.9770230  67.8399590   5.6907570  70.3735370
  68.7095710   5.7992340  71.6079960  60.7650760   2.5558320  57.4219940
  60.5639820   1.6925680  57.7833280  60.5942810   2.4691680  56.4841540
  61.5419990  13.1864590  72.1327610  61.0041080  13.9110650  71.8136310
  61.7953950  12.7094930  71.3424950  64.3982200  14.4215800  72.3914260
  64.3240900  15.3250940  72.6986630  63.4961040  14.1027700  72.3636330
  64.9467530  13.5874310  60.0140620  65.8418320  13.9259280  60.0359380
  64.9785160  12.8653720  59.3864900  58.5863690   8.9601360  58.2427620
  59.0238560   9.5031030  58.8985200  59.0711420   8.1348310  58.2523960
  55.8009490  11.7490390  65.6947880  56.1312500  10.8811450  65.4626520
  56.2300490  11.9548910  66.5252840  60.3971410  10.0799400  63.3549850
  60.0966950   9.9564370  64.2553760  60.2908900   9.2207990  62.9465580
  56.2899700  12.6160980  68.4329510  55.8530690  12.7961780  69.2653660
  56.8577380  13.3735600  68.2911230  71.9261880  12.1177980  72.7206820
  71.3263870  12.1770540  71.9770740  72.0555780  11.1782960  72.8503670
  73.1663330   9.8595800  58.0576530  72.3356290   9.9272450  58.5283760
  73.3435160  10.7499920  57.7543390  72.6219790   6.6043280  60.5610730
  73.3838700   7.1739930  60.6670420  72.6374160   6.0370480  61.3319040
  56.1224130   5.1281210  64.7918390  55.4672970   4.8592850  64.1478090
  56.9602080   5.0185690  64.3420370  73.6279760   7.4593380  65.4052660
  73.9988590   6.6760700  64.9988630  74.2681690   8.1482480  65.2269960
  70.6113520   8.8429960  70.8182980  69.7973360   9.2727120  71.0808770
  71.0187720   9.4548370  70.2052030  72.6738960   6.8977650  57.7183250
  72.9487800   7.8056530  57.5902470  72.4849700   6.8340180  58.6545240
  72.5704300   4.8346640  62.7112680  72.1947900   4.0674570  62.2793970
  71.8407420   5.2169340  63.1987610  57.1600060   5.5133780  69.3321730
  57.5273100   5.4261180  70.2117750  56.5910880   4.7500330  69.2328590
  71.9603920   3.9818160  72.3452200  71.7290010   3.7530910  71.4450150
  72.2208470   4.9017710  72.2997090  56.7116060   2.4242870  73.2380150
  55.8172110   2.3909630  73.5773860  57.2513610   2.6229660  74.0031400
  55.3362210   2.3380140  60.7343720  54.4326290   2.6010340  60.5595380
  55.8202830   2.6091310  59.9543680  71.8455260   3.0604130  66.0119920
  72.3692740   2.5666780  65.3810090  72.4314680   3.1954490  66.7567490
  72.0244980   3.1444000  69.5339470  71.0747690   3.1107540  69.6484460
  72.2057990   4.0544110  69.2989240  71.3355230   2.3177480  61.9512330
  71.8314350   2.0848350  62.7361210  71.1371300   1.4789320  61.5349970
  70.6689570  13.5948560  64.3451250  71.2648640  13.2733130  63.6685670
  70.9267720  13.1220380  65.1364520  58.5752140  10.0266470  74.4941880
  58.5321770   9.6559380  75.3756340  58.7063150  10.9644040  74.6343700
  62.2758170  11.5826060  70.0951600  62.0349530  11.8500620  69.2082120
  63.2160810  11.7531790  70.1502460  73.5362330  13.6020440  70.8962240
  73.0420610  13.9989310  70.1789370  72.9275620  12.9769650  71.2899520
  58.4140170  12.9728720  71.6139660  57.8200490  12.8413420  72.3529700
  58.4064010  12.1366860  71.1481760  71.2201780  14.2443860  68.1748980
  70.7604750  14.9959670  67.8007000  70.5914240  13.5250330  68.1163780
  58.0452400  10.3387100  70.5647700  57.3186460   9.7192390  70.4973650
  58.1061550  10.7327710  69.6945780  61.6497500  12.5532100  67.3497110
  62.1662520  11.9419460  66.8245370  62.2994880  13.0560880  67.8408120
  64.3893000  13.4440590  68.1766090  64.6770810  13.1894890  67.2999100
  64.9016220  12.8917950  68.7671660  56.3282400  13.6561490  63.7744460
  56.1604440  13.0232170  64.4726350  55.4616910  13.8620890  63.4238650
  57.9345100  12.3494720  61.2194600  57.4092720  12.7302750  60.5156560
  57.8589680  12.9745490  61.9404310  64.4565360  14.3656690  75.5434290
  65.3832670  14.1300960  75.5870250  64.4415790  15.1928690  75.0620320
  72.6910420  13.9082260  62.5408540  72.8662610  13.2220000  61.8969460
  71.9931990  14.4329310  62.1485210  60.5338070  14.2977100  60.0943850
  61.2656890  14.0136380  59.5467740  60.7931740  14.0590380  60.9843230
  59.6952860  10.4141830  60.0990180  59.0661740  10.8826930  60.6476010
  59.8100690   9.5691050  60.5336370  71.0242920  13.5926550  75.3675330
  71.8168240  13.0975780  75.1601290  71.3176070  14.2716690  75.9750940
  67.1502580   4.4647490  46.2491380  67.0696630   3.5502100  45.9783090
  66.7367000   4.9614560  45.5431090  65.2820620   6.2426510  48.1300650
  64.5062720   5.7626950  48.4199220  65.9333550   5.5632160  47.9556810
  59.2986450   6.5546320  49.0076410  58.4671330   6.2995030  49.4072920
  59.9067430   6.6257090  49.7434330  69.3028050  10.6486700  46.9099780
  68.8409580   9.8773940  47.2386950  70.1153600  10.6752770  47.4152230
  59.2787710  10.5886410  49.2034430  59.5815750   9.6984150  49.0244650
  60.0231300  11.1456630  48.9756680  55.6711410   4.1153860  48.6758500
  56.2427520   3.3476060  48.6762140  55.6712950   4.4142620  47.7665110
  65.5291360  12.9344710  46.5303770  64.9102800  13.3902210  45.9598210
  66.3843140  13.0896170  46.1293470  64.7229610   8.9183700  48.1370810
  64.6537890   7.9773640  47.9759940  65.4849470   9.0085110  48.7093380
  61.7247520   3.0666080  48.1582360  62.2325740   3.5647050  48.7987380
  62.2560760   2.2901280  47.9821720  66.3954710   7.8183950  43.9235680
  65.7771980   8.2833400  43.3598400  66.9077960   8.5111430  44.3405190
  61.2586470   7.3459820  50.6019280  60.9255850   7.9728740  51.2440350
  61.4353150   7.8721700  49.8220950  60.4705570   9.3140620  52.4168460
  61.0879570   9.9891700  52.1352910  59.6098690   9.7228600  52.3255960
  55.7637910   8.5040480  41.2975310  55.3865890   8.9927580  40.5660210
  56.0210980   9.1765760  41.9281840  71.3883160  10.7780030  50.3323100
  70.7046680  11.4479140  50.3239770  71.9277450  10.9760680  49.5667960
  68.9241900  12.6224160  49.0468280  68.9369060  12.2186450  48.1790540
  68.3717120  13.3971450  48.9429710  70.2187320   9.3440380  44.1358450
  70.1083650   8.4014710  44.2607870  70.2155570   9.7056020  45.0221210
  68.3227340   7.5254000  50.3750890  68.7396130   7.3114110  49.5404350
  69.0467160   7.7826790  50.9459510  65.7607600   4.9705700  43.4920940
  64.8336880   4.9043080  43.7209410  65.9132420   5.9085830  43.3776180
  72.2689440   5.9241220  50.4667130  71.4408070   5.9934310  49.9917260
  72.8639920   6.5095530  49.9982960  69.7904890   6.5326000  43.9956190
  69.1717310   6.1945550  43.3482490  69.7729340   5.8885760  44.7035380
  69.2331450   2.7110540  51.4122000  68.8202630   3.5364250  51.6661990
  68.5007400   2.1255580  51.2198360  61.3664240   5.4970440  46.2740670
  60.9621240   4.7847690  45.7786570  61.4527360   5.1523680  47.1628710
  61.8345940   9.1838000  48.4379880  61.5374230   8.5783470  47.7587660
  62.7845760   9.2215310  48.3269240  60.0792860   2.2713650  50.0539710
  60.6307450   2.3808990  49.2792960  60.5936370   2.6451250  50.7694940
  69.9231550  12.7569870  52.1002980  69.4462110  13.5642060  51.9075590
  69.2393340  12.1048200  52.2529190  60.9264370   8.9219690  55.0887680
  60.0292900   9.1459660  55.3361080  60.9517240   9.0454630  54.1399080
  67.9669590   5.7712810  41.0028940  68.4062870   4.9335240  40.8566760
  68.6798010   6.4042210  41.0893080  59.7535590   5.7933010  53.6645050
  59.6143360   6.6655810  54.0332450  58.8716950   5.4505820  53.5192990
  66.0764970  10.7108880  44.9710180  66.5160880  11.4533210  44.5565570
  66.0151860  10.9535450  45.8949140  61.5515940  11.7354710  55.8730200
  61.5231370  12.1397660  55.0058630  61.3880910  10.8065070  55.7101800
  58.0668870   4.3915420  43.7747320  57.9466470   5.1177510  43.1628590
  57.7569760   3.6218330  43.2975230  73.5030760  12.5181810  57.1694370
  73.9790480  12.9964700  57.8483450  74.1237920  12.4499300  56.4439870
  55.7054240   7.5630560  49.5815960  55.7834660   7.6979330  48.6371680
  56.3195920   6.8546450  49.7744080  56.9501870   9.2630750  45.9922140
  56.5429950   9.4045340  45.1375740  57.8414880   8.9790910  45.7893350
  72.9064010   9.7094660  54.3294380  73.0327070   9.4706540  53.4111560
  72.9485390   8.8779200  54.8016460  66.7680750  13.4122660  52.8989190
  67.2825420  13.3230670  53.7011620  65.9249830  13.7582360  53.1917100
  68.7435150  13.6978000  42.3273190  68.5836290  13.4080940  43.2255020
  68.5781860  12.9218130  41.7918420  61.2223530  13.4776530  44.1044810
  61.0466010  12.5612070  43.8912610  60.3679270  13.8363820  44.3442610
  68.4461280  11.2065560  40.8871190  67.7526440  11.2042850  40.2273470
  69.1884140  10.7824880  40.4565360  68.0111210  12.8328270  44.9619680
  68.4668160  12.0517650  45.2758300  68.3503730  13.5435090  45.5060860
  55.7613760   8.6044730  52.1210420  55.9244800   8.1350090  51.3029790
  56.2266210   8.0968290  52.7859260  69.8206850   1.8227960  53.8902970
  68.9700440   1.5233710  54.2112040  69.6608640   2.0669970  52.9786790
  66.9156560   3.3229710  55.9901760  67.2409970   2.4893460  55.6503990
  67.7036890   3.8458230  56.1380090  60.3246750   2.8584060  44.8852240
  60.0987670   2.6421230  45.7898860  59.5439280   3.2912520  44.5398210
  67.5544510   2.8647430  43.4842890  66.9553400   3.5883230  43.3006510
  68.1024120   2.8024210  42.7019340  62.7645960   3.7569640  55.5512510
  62.6689560   2.8164370  55.4012910  63.6077940   3.9784710  55.1560580
  55.3843780   2.0331890  38.9479090  55.3018450   2.9762650  39.0894080
  55.0326840   1.8906800  38.0691440  66.7464520   4.0916720  49.6096950
  66.0145640   4.6003530  49.9587050  66.3488860   3.2746700  49.3085730
  63.2462060   1.7683000  41.0056200  63.3674880   1.7269480  41.9542020
  62.8610570   2.6307150  40.8502930  62.2583560   4.0784140  40.4039500
  61.6900460   3.6302390  39.7775410  62.9672560   4.4376920  39.8704650
  57.3352740   7.9796160  54.2806230  56.9507530   7.3389830  54.8789190
  57.6464930   8.6832280  54.8500960  63.4849880   4.8272700  49.7614850
  63.8520010   4.3531270  50.5076190  63.2954940   5.7014270  50.1023190
  61.2749250   3.8681340  52.0799060  60.9706320   4.7473320  52.3049420
  62.2295710   3.9281130  52.1156500  59.8031040   8.0742330  42.6765910
  59.0293300   7.5339950  42.5164630  60.5325670   7.5548940  42.3383670
  70.5619020   7.0707690  48.4692300  71.2818140   7.5662980  48.0788410
  70.3600840   6.3925580  47.8246170  65.9437820   7.1416750  54.3561300
  65.8775130   6.2212420  54.1018890  65.3142960   7.2392190  55.0705940
  68.7377350   2.8365300  40.9083850  69.6256970   3.1482530  40.7335190
  68.7082440   1.9637550  40.5164430  59.8468440   7.7422710  46.3144720
  60.3647110   6.9390970  46.2601610  59.3952460   7.6801850  47.1561550
  64.7337940   9.0088990  41.5872020  65.0753640   9.7531220  41.0915340
  63.9050650   9.3220110  41.9496850  57.3312980   4.7084080  53.2270420
  56.9727920   5.3737930  53.8143760  57.0367540   3.8767630  53.5983040
  60.5326100   5.1668320  56.1109970  60.2326240   5.3125500  55.2137790
  61.3037340   4.6073610  56.0183360  65.8754550   9.9637320  54.1065100
  65.8899090   9.0318280  53.8884010  65.1679650  10.0497080  54.7454870
  71.0091620   4.1477140  40.3763710  70.9255340   4.5791360  39.5260150
  71.7285810   4.6075490  40.8090530  72.0865760   6.6044660  53.4533680
  71.3613950   7.1973440  53.2563070  72.6141220   6.5968200  52.6547050
  72.0378870  11.0019400  43.1045840  71.3955030  10.3475020  43.3789560
  71.6509530  11.4074490  42.3286510  67.6165350   8.3304830  46.9517530
  67.9689170   7.7332960  46.2918900  66.7327680   8.0049060  47.1225780
  63.7028630   9.0902520  44.3587940  64.3899760   9.6371730  44.7395530
  62.9161050   9.6343250  44.3937550  55.8421030   4.7075340  39.8505020
  56.7115880   4.9900140  40.1340940  55.3511350   5.5211210  39.7353830
  63.0055840   6.0948550  43.9713300  63.4618620   6.9053800  44.1973490
  62.6544050   5.7771690  44.8031790  65.3088450  11.6054890  51.2005600
  65.9530670  11.8114270  51.8779020  65.6717890  10.8443290  50.7476450
  66.5820530   9.6087240  49.9183050  67.2242760   8.9080400  50.0315220
  67.1069880  10.3885680  49.7379940  70.4276250   9.8935860  39.6422190
  70.2013830   9.1766300  40.2346830  70.0372450   9.6448300  38.8043940
  68.3558150  10.4082140  53.1219110  68.6914390  10.9948830  53.7997030
  67.4358490  10.2774850  53.3516900  56.2092280  13.9202720  40.4166650
  56.5689920  14.5192060  39.7623920  56.0684620  14.4662610  41.1901680
  70.0092500   7.8107800  41.3036350  69.7214200   8.2720490  42.0914230
  70.8044670   7.3505570  41.5720570  64.1846730  10.4573470  56.2907170
  63.8643600   9.7382710  56.8352860  63.5105090  11.1328540  56.3643230
  62.2260900  11.3033920  41.2340320  62.2171000  12.0363610  40.6184830
  61.3059260  11.0565500  41.3267280  57.8267540   6.5248810  41.9787080
  57.2195490   7.2647710  41.9882380  58.3016890   6.6148170  41.1525280
  65.2120500  11.3662160  39.8965510  65.3132480  11.1626150  38.9667490
  64.3122240  11.1120440  40.1013290  64.3602320   3.3439220  51.8781940
  64.8587570   3.8185040  52.5433790  64.5025270   2.4202740  52.0851970
  63.8538610  13.8848480  44.5913180  64.1080110  13.8469870  43.6692550
  62.9051090  13.7581810  44.5841430  69.8591190   4.8040360  46.1671690
  68.9181330   4.8190590  46.3419380  70.1735260   4.0176320  46.6131990
  59.8372830   6.4859960  39.7275650  60.6036100   6.3741320  40.2901080
  59.9147520   5.7897930  39.0752420  58.5319590   3.9185030  40.4108540
  58.6123180   2.9712540  40.5225940  59.4239340   4.2491910  40.5169200
  71.8616770  11.9749210  47.8425950  71.9864190  12.7980380  48.3149760
  72.7282330  11.7639940  47.4950100  59.3334300  14.0680420  47.5143080
  60.0696780  13.5195880  47.7851650  59.7175220  14.9336430  47.3749070
  56.2179780  10.1353990  43.3884590  55.2919560  10.3775130  43.3790000
  56.6836210  10.9628250  43.2669340  58.3392580  13.2526490  56.7028660
  59.1405310  13.5738540  57.1164060  57.8244400  12.8922070  57.4248570
  62.4436610  13.2410730  39.3368650  63.2365220  13.5299560  38.8850440
  61.9240960  12.8102900  38.6581130  67.1757210   9.3606360  56.6504070
  66.5695370   9.3837960  55.9099820  66.8711320   8.6289400  57.1871320
  68.6057580  13.0886650  55.2613480  69.5579330  13.0044670  55.2113720
  68.4585800  13.7528360  55.9347270  71.4966780  12.4680860  40.7605390
  71.2108290  12.0546000  39.9459570  71.2986330  13.3968570  40.6405910
  56.0590390   5.7399950  55.6464710  56.5629410   5.1607230  56.2180940
  55.3197810   6.0240180  56.1841080  62.9614010   8.4614140  39.2011000
  62.8564650   7.8466490  39.9272380  62.7938230   7.9380030  38.4174010
  63.1128330   7.1470940  55.1800230  62.3474000   7.7155940  55.0954900
  63.2944290   6.8547150  54.2868460  66.2016740   7.5234170  39.8052990
  65.6526840   7.9703470  40.4495730  66.8236000   7.0183420  40.3290660
  70.2551680   8.8776270  55.7375250  70.9961150   9.2152030  55.2342710
  69.4924360   9.0468330  55.1845020  58.0913470   3.8829540  56.5414780
  58.1318810   3.5843410  57.4500010  58.9458970   4.2837150  56.3822300
  61.8691860   6.4825090  41.7018290  62.2908280   6.3164960  42.5449680
  61.9942700   5.6725320  41.2073430  60.0319280   2.4621640  54.5089270
  59.5015740   1.9712590  53.8812610  60.7007350   2.8905840  53.9747200
  64.3819500   5.5062700  38.9495390  64.9025160   4.7911720  38.5836540
  65.0287900   6.1448570  39.2495900  68.9297340   6.9291100  54.2730460
  69.3438360   7.0836180  55.1220880  67.9948340   7.0546320  54.4356240
  69.4019510   4.2687260  56.2769610  69.9840280   3.5139580  56.1890090
  69.5781280   4.7994700  55.5001090  63.6912570   6.8811580  52.2426390
  64.1100680   7.7244310  52.0702630  62.7721200   7.0183620  52.0133170
  66.0276470   4.6127760  53.6264230  66.1472680   4.0168900  54.3659070
  66.8870470   4.6497450  53.2065530  68.3664370   5.1664950  52.2026740
  67.8399590   5.6907570  51.5991880  68.7095710   5.7992340  52.8336470
  60.7650760   2.5558320  38.6476450  60.5639820   1.6925680  39.0089790
  60.5942810   2.4691680  37.7098050  61.5419990  13.1864590  53.3584120
  61.0041080  13.9110650  53.0392820  61.7953950  12.7094930  52.5681460
  64.3982200  14.4215800  53.6170770  64.3240900  15.3250940  53.9243140
  63.4961040  14.1027700  53.5892840  64.9467530  13.5874310  41.2397130
  65.8418320  13.9259280  41.2615890  64.9785160  12.8653720  40.6121410
  58.5863690   8.9601360  39.4684130  59.0238560   9.5031030  40.1241710
  59.0711420   8.1348310  39.4780470  55.8009490  11.7490390  46.9204390
  56.1312500  10.8811450  46.6883030  56.2300490  11.9548910  47.7509350
  60.3971410  10.0799400  44.5806360  60.0966950   9.9564370  45.4810270
  60.2908900   9.2207990  44.1722090  71.9261880  12.1177980  53.9463330
  71.3263870  12.1770540  53.2027250  72.0555780  11.1782960  54.0760180
  73.1663330   9.8595800  39.2833040  72.3356290   9.9272450  39.7540270
  73.3435160  10.7499920  38.9799900  72.6219790   6.6043280  41.7867240
  73.3838700   7.1739930  41.8926930  72.6374160   6.0370480  42.5575550
  56.1224130   5.1281210  46.0174900  55.4672970   4.8592850  45.3734600
  56.9602080   5.0185690  45.5676880  73.6279760   7.4593380  46.6309170
  73.9988590   6.6760700  46.2245140  74.2681690   8.1482480  46.4526470
  70.6113520   8.8429960  52.0439490  69.7973360   9.2727120  52.3065280
  71.0187720   9.4548370  51.4308540  72.6738960   6.8977650  38.9439760
  72.9487800   7.8056530  38.8158980  72.4849700   6.8340180  39.8801750
  72.5704300   4.8346640  43.9369190  72.1947900   4.0674570  43.5050480
  71.8407420   5.2169340  44.4244120  57.1600060   5.5133780  50.5578240
  57.5273100   5.4261180  51.4374260  56.5910880   4.7500330  50.4585100
  71.9603920   3.9818160  53.5708710  71.7290010   3.7530910  52.6706660
  72.2208470   4.9017710  53.5253600  56.7116060   2.4242870  54.4636660
  55.8172110   2.3909630  54.8030370  57.2513610   2.6229660  55.2287910
  55.3362210   2.3380140  41.9600230  54.4326290   2.6010340  41.7851890
  55.8202830   2.6091310  41.1800190  71.8455260   3.0604130  47.2376430
  72.3692740   2.5666780  46.6066600  72.4314680   3.1954490  47.9824000
  72.0244980   3.1444000  50.7595980  71.0747690   3.1107540  50.8740970
  72.2057990   4.0544110  50.5245750  71.3355230   2.3177480  43.1768840
  71.8314350   2.0848350  43.9617720  71.1371300   1.4789320  42.7606480
  70.6689570  13.5948560  45.5707760  71.2648640  13.2733130  44.8942180
  70.9267720  13.1220380  46.3621030  58.5752140  10.0266470  55.7198390
  58.5321770   9.6559380  56.6012850  58.7063150  10.9644040  55.8600210
  62.2758170  11.5826060  51.3208110  62.0349530  11.8500620  50.4338630
  63.2160810  11.7531790  51.3758970  73.5362330  13.6020440  52.1218750
  73.0420610  13.9989310  51.4045880  72.9275620  12.9769650  52.5156030
  71.2201780  14.2443860  49.4005490  70.7604750  14.9959670  49.0263510
  70.5914240  13.5250330  49.3420290  58.0452400  10.3387100  51.7904210
  57.3186460   9.7192390  51.7230160  58.1061550  10.7327710  50.9202290
  61.6497500  12.5532100  48.5753620  62.1662520  11.9419460  48.0501880
  62.2994880  13.0560880  49.0664630  64.3893000  13.4440590  49.4022600
  64.6770810  13.1894890  48.5255610  64.9016220  12.8917950  49.9928170
  56.3282400  13.6561490  45.0000970  56.1604440  13.0232170  45.6982860
  55.4616910  13.8620890  44.6495160  57.9345100  12.3494720  42.4451110
  57.4092720  12.7302750  41.7413070  57.8589680  12.9745490  43.1660820
  64.4565360  14.3656690  56.7690800  65.3832670  14.1300960  56.8126760
  64.4415790  15.1928690  56.2876830  72.6910420  13.9082260  43.7665050
  72.8662610  13.2220000  43.1225970  71.9931990  14.4329310  43.3741720
  60.5338070  14.2977100  41.3200360  61.2656890  14.0136380  40.7724250
  60.7931740  14.0590380  42.2099740  59.6952860  10.4141830  41.3246690
  59.0661740  10.8826930  41.8732520  59.8100690   9.5691050  41.7592880
  71.0242920  13.5926550  56.5931840  71.8168240  13.0975780  56.3857800
  71.3176070  14.2716690  57.2007450  67.1502580   4.4647490  27.4747890
  67.0696630   3.5502100  27.2039600  66.7367000   4.9614560  26.7687600
  65.2820620   6.2426510  29.3557160  64.5062720   5.7626950  29.6455730
  65.9333550   5.5632160  29.1813320  59.2986450   6.5546320  30.2332920
  58.4671330   6.2995030  30.6329430  59.9067430   6.6257090  30.9690840
  69.3028050  10.6486700  28.1356290  68.8409580   9.8773940  28.4643460
  70.1153600  10.6752770  28.6408740  59.2787710  10.5886410  30.4290940
  59.5815750   9.6984150  30.2501160  60.0231300  11.1456630  30.2013190
  55.6711410   4.1153860  29.9015010  56.2427520   3.3476060  29.9018650
  55.6712950   4.4142620  28.9921620  65.5291360  12.9344710  27.7560280
  64.9102800  13.3902210  27.1854720  66.3843140  13.0896170  27.3549980
  64.7229610   8.9183700  29.3627320  64.6537890   7.9773640  29.2016450
  65.4849470   9.0085110  29.9349890  61.7247520   3.0666080  29.3838870
  62.2325740   3.5647050  30.0243890  62.2560760   2.2901280  29.2078230
  66.3954710   7.8183950  25.1492190  65.7771980   8.2833400  24.5854910
  66.9077960   8.5111430  25.5661700  61.2586470   7.3459820  31.8275790
  60.9255850   7.9728740  32.4696860  61.4353150   7.8721700  31.0477460
  60.4705570   9.3140620  33.6424970  61.0879570   9.9891700  33.3609420
  59.6098690   9.7228600  33.5512470  55.7637910   8.5040480  22.5231820
  55.3865890   8.9927580  21.7916720  56.0210980   9.1765760  23.1538350
  71.3883160  10.7780030  31.5579610  70.7046680  11.4479140  31.5496280
  71.9277450  10.9760680  30.7924470  68.9241900  12.6224160  30.2724790
  68.9369060  12.2186450  29.4047050  68.3717120  13.3971450  30.1686220
  70.2187320   9.3440380  25.3614960  70.1083650   8.4014710  25.4864380
  70.2155570   9.7056020  26.2477720  68.3227340   7.5254000  31.6007400
  68.7396130   7.3114110  30.7660860  69.0467160   7.7826790  32.1716020
  65.7607600   4.9705700  24.7177450  64.8336880   4.9043080  24.9465920
  65.9132420   5.9085830  24.6032690  72.2689440   5.9241220  31.6923640
  71.4408070   5.9934310  31.2173770  72.8639920   6.5095530  31.2239470
  69.7904890   6.5326000  25.2212700  69.1717310   6.1945550  24.5739000
  69.7729340   5.8885760  25.9291890  69.2331450   2.7110540  32.6378510
  68.8202630   3.5364250  32.8918500  68.5007400   2.1255580  32.4454870
  61.3664240   5.4970440  27.4997180  60.9621240   4.7847690  27.0043080
  61.4527360   5.1523680  28.3885220  61.8345940   9.1838000  29.6636390
  61.5374230   8.5783470  28.9844170  62.7845760   9.2215310  29.5525750
  60.0792860   2.2713650  31.2796220  60.6307450   2.3808990  30.5049470
  60.5936370   2.6451250  31.9951450  69.9231550  12.7569870  33.3259490
  69.4462110  13.5642060  33.1332100  69.2393340  12.1048200  33.4785700
  60.9264370   8.9219690  36.3144190  60.0292900   9.1459660  36.5617590
  60.9517240   9.0454630  35.3655590  67.9669590   5.7712810  22.2285450
  68.4062870   4.9335240  22.0823270  68.6798010   6.4042210  22.3149590
  59.7535590   5.7933010  34.8901560  59.6143360   6.6655810  35.2588960
  58.8716950   5.4505820  34.7449500  66.0764970  10.7108880  26.1966690
  66.5160880  11.4533210  25.7822080  66.0151860  10.9535450  27.1205650
  61.5515940  11.7354710  37.0986710  61.5231370  12.1397660  36.2315140
  61.3880910  10.8065070  36.9358310  58.0668870   4.3915420  25.0003830
  57.9466470   5.1177510  24.3885100  57.7569760   3.6218330  24.5231740
  73.5030760  12.5181810  38.3950880  73.9790480  12.9964700  39.0739960
  74.1237920  12.4499300  37.6696380  55.7054240   7.5630560  30.8072470
  55.7834660   7.6979330  29.8628190  56.3195920   6.8546450  31.0000590
  56.9501870   9.2630750  27.2178650  56.5429950   9.4045340  26.3632250
  57.8414880   8.9790910  27.0149860  72.9064010   9.7094660  35.5550890
  73.0327070   9.4706540  34.6368070  72.9485390   8.8779200  36.0272970
  66.7680750  13.4122660  34.1245700  67.2825420  13.3230670  34.9268130
  65.9249830  13.7582360  34.4173610  68.7435150  13.6978000  23.5529700
  68.5836290  13.4080940  24.4511530  68.5781860  12.9218130  23.0174930
  61.2223530  13.4776530  25.3301320  61.0466010  12.5612070  25.1169120
  60.3679270  13.8363820  25.5699120  68.4461280  11.2065560  22.1127700
  67.7526440  11.2042850  21.4529980  69.1884140  10.7824880  21.6821870
  68.0111210  12.8328270  26.1876190  68.4668160  12.0517650  26.5014810
  68.3503730  13.5435090  26.7317370  55.7613760   8.6044730  33.3466930
  55.9244800   8.1350090  32.5286300  56.2266210   8.0968290  34.0115770
  69.8206850   1.8227960  35.1159480  68.9700440   1.5233710  35.4368550
  69.6608640   2.0669970  34.2043300  66.9156560   3.3229710  37.2158270
  67.2409970   2.4893460  36.8760500  67.7036890   3.8458230  37.3636600
  60.3246750   2.8584060  26.1108750  60.0987670   2.6421230  27.0155370
  59.5439280   3.2912520  25.7654720  67.5544510   2.8647430  24.7099400
  66.9553400   3.5883230  24.5263020  68.1024120   2.8024210  23.9275850
  62.7645960   3.7569640  36.7769020  62.6689560   2.8164370  36.6269420
  63.6077940   3.9784710  36.3817090  55.3843780   2.0331890  20.1735600
  55.3018450   2.9762650  20.3150590  55.0326840   1.8906800  19.2947950
  66.7464520   4.0916720  30.8353460  66.0145640   4.6003530  31.1843560
  66.3488860   3.2746700  30.5342240  63.2462060   1.7683000  22.2312710
  63.3674880   1.7269480  23.1798530  62.8610570   2.6307150  22.0759440
  62.2583560   4.0784140  21.6296010  61.6900460   3.6302390  21.0031920
  62.9672560   4.4376920  21.0961160  57.3352740   7.9796160  35.5062740
  56.9507530   7.3389830  36.1045700  57.6464930   8.6832280  36.0757470
  63.4849880   4.8272700  30.9871360  63.8520010   4.3531270  31.7332700
  63.2954940   5.7014270  31.3279700  61.2749250   3.8681340  33.3055570
  60.9706320   4.7473320  33.5305930  62.2295710   3.9281130  33.3413010
  59.8031040   8.0742330  23.9022420  59.0293300   7.5339950  23.7421140
  60.5325670   7.5548940  23.5640180  70.5619020   7.0707690  29.6948810
  71.2818140   7.5662980  29.3044920  70.3600840   6.3925580  29.0502680
  65.9437820   7.1416750  35.5817810  65.8775130   6.2212420  35.3275400
  65.3142960   7.2392190  36.2962450  68.7377350   2.8365300  22.1340360
  69.6256970   3.1482530  21.9591700  68.7082440   1.9637550  21.7420940
  59.8468440   7.7422710  27.5401230  60.3647110   6.9390970  27.4858120
  59.3952460   7.6801850  28.3818060  64.7337940   9.0088990  22.8128530
  65.0753640   9.7531220  22.3171850  63.9050650   9.3220110  23.1753360
  57.3312980   4.7084080  34.4526930  56.9727920   5.3737930  35.0400270
  57.0367540   3.8767630  34.8239550  60.5326100   5.1668320  37.3366480
  60.2326240   5.3125500  36.4394300  61.3037340   4.6073610  37.2439870
  65.8754550   9.9637320  35.3321610  65.8899090   9.0318280  35.1140520
  65.1679650  10.0497080  35.9711380  71.0091620   4.1477140  21.6020220
  70.9255340   4.5791360  20.7516660  71.7285810   4.6075490  22.0347040
  72.0865760   6.6044660  34.6790190  71.3613950   7.1973440  34.4819580
  72.6141220   6.5968200  33.8803560  72.0378870  11.0019400  24.3302350
  71.3955030  10.3475020  24.6046070  71.6509530  11.4074490  23.5543020
  67.6165350   8.3304830  28.1774040  67.9689170   7.7332960  27.5175410
  66.7327680   8.0049060  28.3482290  63.7028630   9.0902520  25.5844450
  64.3899760   9.6371730  25.9652040  62.9161050   9.6343250  25.6194060
  55.8421030   4.7075340  21.0761530  56.7115880   4.9900140  21.3597450
  55.3511350   5.5211210  20.9610340  63.0055840   6.0948550  25.1969810
  63.4618620   6.9053800  25.4230000  62.6544050   5.7771690  26.0288300
  65.3088450  11.6054890  32.4262110  65.9530670  11.8114270  33.1035530
  65.6717890  10.8443290  31.9732960  66.5820530   9.6087240  31.1439560
  67.2242760   8.9080400  31.2571730  67.1069880  10.3885680  30.9636450
  70.4276250   9.8935860  20.8678700  70.2013830   9.1766300  21.4603340
  70.0372450   9.6448300  20.0300450  68.3558150  10.4082140  34.3475620
  68.6914390  10.9948830  35.0253540  67.4358490  10.2774850  34.5773410
  56.2092280  13.9202720  21.6423160  56.5689920  14.5192060  20.9880430
  56.0684620  14.4662610  22.4158190  70.0092500   7.8107800  22.5292860
  69.7214200   8.2720490  23.3170740  70.8044670   7.3505570  22.7977080
  56.1934140  12.1857580  36.1165560  56.3025260  11.2452320  35.9760950
  55.5414700  12.4512330  35.4679290  64.1846730  10.4573470  37.5163680
  63.8643600   9.7382710  38.0609370  63.5105090  11.1328540  37.5899740
  62.2260900  11.3033920  22.4596830  62.2171000  12.0363610  21.8441340
  61.3059260  11.0565500  22.5523790  57.8267540   6.5248810  23.2043590
  57.2195490   7.2647710  23.2138890  58.3016890   6.6148170  22.3781790
  65.2120500  11.3662160  21.1222020  65.3132480  11.1626150  20.1924000
  64.3122240  11.1120440  21.3269800  64.3602320   3.3439220  33.1038450
  64.8587570   3.8185040  33.7690300  64.5025270   2.4202740  33.3108480
  63.8538610  13.8848480  25.8169690  64.1080110  13.8469870  24.8949060
  62.9051090  13.7581810  25.8097940  69.8591190   4.8040360  27.3928200
  68.9181330   4.8190590  27.5675890  70.1735260   4.0176320  27.8388500
  59.8372830   6.4859960  20.9532160  60.6036100   6.3741320  21.5157590
  59.9147520   5.7897930  20.3008930  58.5319590   3.9185030  21.6365050
  58.6123180   2.9712540  21.7482450  59.4239340   4.2491910  21.7425710
  71.8616770  11.9749210  29.0682460  71.9864190  12.7980380  29.5406270
  72.7282330  11.7639940  28.7206610  59.3334300  14.0680420  28.7399590
  60.0696780  13.5195880  29.0108160  59.7175220  14.9336430  28.6005580
  56.2179780  10.1353990  24.6141100  55.2919560  10.3775130  24.6046510
  56.6836210  10.9628250  24.4925850  58.3392580  13.2526490  37.9285170
  59.1405310  13.5738540  38.3420570  57.8244400  12.8922070  38.6505080
  62.4436610  13.2410730  20.5625160  63.2365220  13.5299560  20.1106950
  61.9240960  12.8102900  19.8837640  67.1757210   9.3606360  37.8760580
  66.5695370   9.3837960  37.1356330  66.8711320   8.6289400  38.4127830
  68.6057580  13.0886650  36.4869990  69.5579330  13.0044670  36.4370230
  68.4585800  13.7528360  37.1603780  71.4966780  12.4680860  21.9861900
  71.2108290  12.0546000  21.1716080  71.2986330  13.3968570  21.8662420
  56.0590390   5.7399950  36.8721220  56.5629410   5.1607230  37.4437450
  55.3197810   6.0240180  37.4097590  62.9614010   8.4614140  20.4267510
  62.8564650   7.8466490  21.1528890  62.7938230   7.9380030  19.6430520
  63.1128330   7.1470940  36.4056740  62.3474000   7.7155940  36.3211410
  63.2944290   6.8547150  35.5124970  66.2016740   7.5234170  21.0309500
  65.6526840   7.9703470  21.6752240  66.8236000   7.0183420  21.5547170
  70.2551680   8.8776270  36.9631760  70.9961150   9.2152030  36.4599220
  69.4924360   9.0468330  36.4101530  58.0913470   3.8829540  37.7671290
  58.1318810   3.5843410  38.6756520  58.9458970   4.2837150  37.6078810
  61.8691860   6.4825090  22.9274800  62.2908280   6.3164960  23.7706190
  61.9942700   5.6725320  22.4329940  60.0319280   2.4621640  35.7345780
  59.5015740   1.9712590  35.1069120  60.7007350   2.8905840  35.2003710
  64.3819500   5.5062700  20.1751900  64.9025160   4.7911720  19.8093050
  65.0287900   6.1448570  20.4752410  68.9297340   6.9291100  35.4986970
  69.3438360   7.0836180  36.3477390  67.9948340   7.0546320  35.6612750
  69.4019510   4.2687260  37.5026120  69.9840280   3.5139580  37.4146600
  69.5781280   4.7994700  36.7257600  63.6912570   6.8811580  33.4682900
  64.1100680   7.7244310  33.2959140  62.7721200   7.0183620  33.2389680
  66.0276470   4.6127760  34.8520740  66.1472680   4.0168900  35.5915580
  66.8870470   4.6497450  34.4322040  68.3664370   5.1664950  33.4283250
  67.8399590   5.6907570  32.8248390  68.7095710   5.7992340  34.0592980
  60.7650760   2.5558320  19.8732960  60.5639820   1.6925680  20.2346300
  60.5942810   2.4691680  18.9354560  61.5419990  13.1864590  34.5840630
  61.0041080  13.9110650  34.2649330  61.7953950  12.7094930  33.7937970
  64.3982200  14.4215800  34.8427280  64.3240900  15.3250940  35.1499650
  63.4961040  14.1027700  34.8149350  64.9467530  13.5874310  22.4653640
  65.8418320  13.9259280  22.4872400  64.9785160  12.8653720  21.8377920
  58.5863690   8.9601360  20.6940640  59.0238560   9.5031030  21.3498220
  59.0711420   8.1348310  20.7036980  55.8009490  11.7490390  28.1460900
  56.1312500  10.8811450  27.9139540  56.2300490  11.9548910  28.9765860
  60.3971410  10.0799400  25.8062870  60.0966950   9.9564370  26.7066780
  60.2908900   9.2207990  25.3978600  56.2899700  12.6160980  30.8842530
  55.8530690  12.7961780  31.7166680  56.8577380  13.3735600  30.7424250
  71.9261880  12.1177980  35.1719840  71.3263870  12.1770540  34.4283760
  72.0555780  11.1782960  35.3016690  73.1663330   9.8595800  20.5089550
  72.3356290   9.9272450  20.9796780  73.3435160  10.7499920  20.2056410
  72.6219790   6.6043280  23.0123750  73.3838700   7.1739930  23.1183440
  72.6374160   6.0370480  23.7832060  56.1224130   5.1281210  27.2431410
  55.4672970   4.8592850  26.5991110  56.9602080   5.0185690  26.7933390
  73.6279760   7.4593380  27.8565680  73.9988590   6.6760700  27.4501650
  74.2681690   8.1482480  27.6782980  70.6113520   8.8429960  33.2696000
  69.7973360   9.2727120  33.5321790  71.0187720   9.4548370  32.6565050
  72.6738960   6.8977650  20.1696270  72.9487800   7.8056530  20.0415490
  72.4849700   6.8340180  21.1058260  72.5704300   4.8346640  25.1625700
  72.1947900   4.0674570  24.7306990  71.8407420   5.2169340  25.6500630
  57.1600060   5.5133780  31.7834750  57.5273100   5.4261180  32.6630770
  56.5910880   4.7500330  31.6841610  71.9603920   3.9818160  34.7965220
  71.7290010   3.7530910  33.8963170  72.2208470   4.9017710  34.7510110
  56.7116060   2.4242870  35.6893170  55.8172110   2.3909630  36.0286880
  57.2513610   2.6229660  36.4544420  55.3362210   2.3380140  23.1856740
  54.4326290   2.6010340  23.0108400  55.8202830   2.6091310  22.4056700
  71.8455260   3.0604130  28.4632940  72.3692740   2.5666780  27.8323110
  72.4314680   3.1954490  29.2080510  72.0244980   3.1444000  31.9852490
  71.0747690   3.1107540  32.0997480  72.2057990   4.0544110  31.7502260
  71.3355230   2.3177480  24.4025350  71.8314350   2.0848350  25.1874230
  71.1371300   1.4789320  23.9862990  70.6689570  13.5948560  26.7964270
  71.2648640  13.2733130  26.1198690  70.9267720  13.1220380  27.5877540
  58.5752140  10.0266470  36.9454900  58.5321770   9.6559380  37.8269360
  58.7063150  10.9644040  37.0856720  62.2758170  11.5826060  32.5464620
  62.0349530  11.8500620  31.6595140  63.2160810  11.7531790  32.6015480
  73.5362330  13.6020440  33.3475260  73.0420610  13.9989310  32.6302390
  72.9275620  12.9769650  33.7412540  58.4140170  12.9728720  34.0652680
  57.8200490  12.8413420  34.8042720  58.4064010  12.1366860  33.5994780
  71.2201780  14.2443860  30.6262000  70.7604750  14.9959670  30.2520020
  70.5914240  13.5250330  30.5676800  58.0452400  10.3387100  33.0160720
  57.3186460   9.7192390  32.9486670  58.1061550  10.7327710  32.1458800
  61.6497500  12.5532100  29.8010130  62.1662520  11.9419460  29.2758390
  62.2994880  13.0560880  30.2921140  64.3893000  13.4440590  30.6279110
  64.6770810  13.1894890  29.7512120  64.9016220  12.8917950  31.2184680
  56.3282400  13.6561490  26.2257480  56.1604440  13.0232170  26.9239370
  55.4616910  13.8620890  25.8751670  57.9345100  12.3494720  23.6707620
  57.4092720  12.7302750  22.9669580  57.8589680  12.9745490  24.3917330
  64.4565360  14.3656690  37.9947310  65.3832670  14.1300960  38.0383270
  64.4415790  15.1928690  37.5133340  72.6910420  13.9082260  24.9921560
  72.8662610  13.2220000  24.3482480  71.9931990  14.4329310  24.5998230
  60.5338070  14.2977100  22.5456870  61.2656890  14.0136380  21.9980760
  60.7931740  14.0590380  23.4356250  59.6952860  10.4141830  22.5503200
  59.0661740  10.8826930  23.0989030  59.8100690   9.5691050  22.9849390
  71.0242920  13.5926550  37.8188350  71.8168240  13.0975780  37.6114310
  71.3176070  14.2716690  38.4263960  67.1502580   4.4647490   8.7004400
  67.0696630   3.5502100   8.4296110  66.7367000   4.9614560   7.9944110
  65.2820620   6.2426510  10.5813670  64.5062720   5.7626950  10.8712240
  65.9333550   5.5632160  10.4069830  59.2986450   6.5546320  11.4589430
  58.4671330   6.2995030  11.8585940  59.9067430   6.6257090  12.1947350
  69.3028050  10.6486700   9.3612800  68.8409580   9.8773940   9.6899970
  70.1153600  10.6752770   9.8665250  59.2787710  10.5886410  11.6547450
  59.5815750   9.6984150  11.4757670  60.0231300  11.1456630  11.4269700
  55.6711410   4.1153860  11.1271520  56.2427520   3.3476060  11.1275160
  55.6712950   4.4142620  10.2178130  65.5291360  12.9344710   8.9816790
  64.9102800  13.3902210   8.4111230  66.3843140  13.0896170   8.5806490
  64.7229610   8.9183700  10.5883830  64.6537890   7.9773640  10.4272960
  65.4849470   9.0085110  11.1606400  61.7247520   3.0666080  10.6095380
  62.2325740   3.5647050  11.2500400  62.2560760   2.2901280  10.4334740
  66.3954710   7.8183950   6.3748700  65.7771980   8.2833400   5.8111420
  66.9077960   8.5111430   6.7918210  61.2586470   7.3459820  13.0532300
  60.9255850   7.9728740  13.6953370  61.4353150   7.8721700  12.2733970
  60.4705570   9.3140620  14.8681480  61.0879570   9.9891700  14.5865930
  59.6098690   9.7228600  14.7768980  55.7637910   8.5040480   3.7488330
  55.3865890   8.9927580   3.0173230  56.0210980   9.1765760   4.3794860
  71.3883160  10.7780030  12.7836120  70.7046680  11.4479140  12.7752790
  71.9277450  10.9760680  12.0180980  68.9241900  12.6224160  11.4981300
  68.9369060  12.2186450  10.6303560  68.3717120  13.3971450  11.3942730
  70.2187320   9.3440380   6.5871470  70.1083650   8.4014710   6.7120890
  70.2155570   9.7056020   7.4734230  68.3227340   7.5254000  12.8263910
  68.7396130   7.3114110  11.9917370  69.0467160   7.7826790  13.3972530
  65.7607600   4.9705700   5.9433960  64.8336880   4.9043080   6.1722430
  65.9132420   5.9085830   5.8289200  72.2689440   5.9241220  12.9180150
  71.4408070   5.9934310  12.4430280  72.8639920   6.5095530  12.4495980
  69.7904890   6.5326000   6.4469210  69.1717310   6.1945550   5.7995510
  69.7729340   5.8885760   7.1548400  69.2331450   2.7110540  13.8635020
  68.8202630   3.5364250  14.1175010  68.5007400   2.1255580  13.6711380
  61.3664240   5.4970440   8.7253690  60.9621240   4.7847690   8.2299590
  61.4527360   5.1523680   9.6141730  61.8345940   9.1838000  10.8892900
  61.5374230   8.5783470  10.2100680  62.7845760   9.2215310  10.7782260
  60.0792860   2.2713650  12.5052730  60.6307450   2.3808990  11.7305980
  60.5936370   2.6451250  13.2207960  69.9231550  12.7569870  14.5516000
  69.4462110  13.5642060  14.3588610  69.2393340  12.1048200  14.7042210
  60.9264370   8.9219690  17.5400700  60.0292900   9.1459660  17.7874100
  60.9517240   9.0454630  16.5912100  67.9669590   5.7712810   3.4541960
  68.4062870   4.9335240   3.3079780  68.6798010   6.4042210   3.5406100
  59.7535590   5.7933010  16.1158070  59.6143360   6.6655810  16.4845470
  58.8716950   5.4505820  15.9706010  66.0764970  10.7108880   7.4223200
  66.5160880  11.4533210   7.0078590  66.0151860  10.9535450   8.3462160
  61.5515940  11.7354710  18.3243220  61.5231370  12.1397660  17.4571650
  61.3880910  10.8065070  18.1614820  58.0668870   4.3915420   6.2260340
  57.9466470   5.1177510   5.6141610  57.7569760   3.6218330   5.7488250
  73.5030760  12.5181810  19.6207390  73.9790480  12.9964700  20.2996470
  74.1237920  12.4499300  18.8952890  55.7054240   7.5630560  12.0328980
  55.7834660   7.6979330  11.0884700  56.3195920   6.8546450  12.2257100
  56.9501870   9.2630750   8.4435160  56.5429950   9.4045340   7.5888760
  57.8414880   8.9790910   8.2406370  72.9064010   9.7094660  16.7807400
  73.0327070   9.4706540  15.8624580  72.9485390   8.8779200  17.2529480
  66.7680750  13.4122660  15.3502210  67.2825420  13.3230670  16.1524640
  65.9249830  13.7582360  15.6430120  68.7435150  13.6978000   4.7786210
  68.5836290  13.4080940   5.6768040  68.5781860  12.9218130   4.2431440
  61.2223530  13.4776530   6.5557830  61.0466010  12.5612070   6.3425630
  60.3679270  13.8363820   6.7955630  68.4461280  11.2065560   3.3384210
  67.7526440  11.2042850   2.6786490  69.1884140  10.7824880   2.9078380
  68.0111210  12.8328270   7.4132700  68.4668160  12.0517650   7.7271320
  68.3503730  13.5435090   7.9573880  55.7613760   8.6044730  14.5723440
  55.9244800   8.1350090  13.7542810  56.2266210   8.0968290  15.2372280
  69.8206850   1.8227960  16.3415990  68.9700440   1.5233710  16.6625060
  69.6608640   2.0669970  15.4299810  66.9156560   3.3229710  18.4414780
  67.2409970   2.4893460  18.1017010  67.7036890   3.8458230  18.5893110
  60.3246750   2.8584060   7.3365260  60.0987670   2.6421230   8.2411880
  59.5439280   3.2912520   6.9911230  67.5544510   2.8647430   5.9355910
  66.9553400   3.5883230   5.7519530  68.1024120   2.8024210   5.1532360
  62.7645960   3.7569640  18.0025530  62.6689560   2.8164370  17.8525930
  63.6077940   3.9784710  17.6073600  66.7464520   4.0916720  12.0609970
  66.0145640   4.6003530  12.4100070  66.3488860   3.2746700  11.7598750
  63.2462060   1.7683000   3.4569220  63.3674880   1.7269480   4.4055040
  62.8610570   2.6307150   3.3015950  62.2583560   4.0784140   2.8552520
  61.6900460   3.6302390   2.2288430  62.9672560   4.4376920   2.3217670
  57.3352740   7.9796160  16.7319250  56.9507530   7.3389830  17.3302210
  57.6464930   8.6832280  17.3013980  63.4849880   4.8272700  12.2127870
  63.8520010   4.3531270  12.9589210  63.2954940   5.7014270  12.5536210
  61.2749250   3.8681340  14.5312080  60.9706320   4.7473320  14.7562440
  62.2295710   3.9281130  14.5669520  59.8031040   8.0742330   5.1278930
  59.0293300   7.5339950   4.9677650  60.5325670   7.5548940   4.7896690
  70.5619020   7.0707690  10.9205320  71.2818140   7.5662980  10.5301430
  70.3600840   6.3925580  10.2759190  65.9437820   7.1416750  16.8074320
  65.8775130   6.2212420  16.5531910  65.3142960   7.2392190  17.5218960
  68.7377350   2.8365300   3.3596870  69.6256970   3.1482530   3.1848210
  68.7082440   1.9637550   2.9677450  59.8468440   7.7422710   8.7657740
  60.3647110   6.9390970   8.7114630  59.3952460   7.6801850   9.6074570
  64.7337940   9.0088990   4.0385040  65.0753640   9.7531220   3.5428360
  63.9050650   9.3220110   4.4009870  57.3312980   4.7084080  15.6783440
  56.9727920   5.3737930  16.2656780  57.0367540   3.8767630  16.0496060
  60.5326100   5.1668320  18.5622990  60.2326240   5.3125500  17.6650810
  61.3037340   4.6073610  18.4696380  65.8754550   9.9637320  16.5578120
  65.8899090   9.0318280  16.3397030  65.1679650  10.0497080  17.1967890
  71.0091620   4.1477140   2.8276730  70.9255340   4.5791360   1.9773170
  71.7285810   4.6075490   3.2603550  72.0865760   6.6044660  15.9046700
  71.3613950   7.1973440  15.7076090  72.6141220   6.5968200  15.1060070
  72.0378870  11.0019400   5.5558860  71.3955030  10.3475020   5.8302580
  71.6509530  11.4074490   4.7799530  67.6165350   8.3304830   9.4030550
  67.9689170   7.7332960   8.7431920  66.7327680   8.0049060   9.5738800
  63.7028630   9.0902520   6.8100960  64.3899760   9.6371730   7.1908550
  62.9161050   9.6343250   6.8450570  55.8421030   4.7075340   2.3018040
  56.7115880   4.9900140   2.5853960  55.3511350   5.5211210   2.1866850
  63.0055840   6.0948550   6.4226320  63.4618620   6.9053800   6.6486510
  62.6544050   5.7771690   7.2544810  65.3088450  11.6054890  13.6518620
  65.9530670  11.8114270  14.3292040  65.6717890  10.8443290  13.1989470
  66.5820530   9.6087240  12.3696070  67.2242760   8.9080400  12.4828240
  67.1069880  10.3885680  12.1892960  68.3558150  10.4082140  15.5732130
  68.6914390  10.9948830  16.2510050  67.4358490  10.2774850  15.8029920
  56.2092280  13.9202720   2.8679670  56.5689920  14.5192060   2.2136940
  56.0684620  14.4662610   3.6414700  70.0092500   7.8107800   3.7549370
  69.7214200   8.2720490   4.5427250  70.8044670   7.3505570   4.0233590
  56.1934140  12.1857580  17.3422070  56.3025260  11.2452320  17.2017460
  55.5414700  12.4512330  16.6935800  64.1846730  10.4573470  18.7420190
  63.8643600   9.7382710  19.2865880  63.5105090  11.1328540  18.8156250
  62.2260900  11.3033920   3.6853340  62.2171000  12.0363610   3.0697850
  61.3059260  11.0565500   3.7780300  57.8267540   6.5248810   4.4300100
  57.2195490   7.2647710   4.4395400  58.3016890   6.6148170   3.6038300
  64.3602320   3.3439220  14.3294960  64.8587570   3.8185040  14.9946810
  64.5025270   2.4202740  14.5364990  63.8538610  13.8848480   7.0426200
  64.1080110  13.8469870   6.1205570  62.9051090  13.7581810   7.0354450
  69.8591190   4.8040360   8.6184710  68.9181330   4.8190590   8.7932400
  70.1735260   4.0176320   9.0645010  58.5319590   3.9185030   2.8621560
  58.6123180   2.9712540   2.9738960  59.4239340   4.2491910   2.9682220
  71.8616770  11.9749210  10.2938970  71.9864190  12.7980380  10.7662780
  72.7282330  11.7639940   9.9463120  59.3334300  14.0680420   9.9656100
  60.0696780  13.5195880  10.2364670  59.7175220  14.9336430   9.8262090
  56.2179780  10.1353990   5.8397610  55.2919560  10.3775130   5.8303020
  56.6836210  10.9628250   5.7182360  58.3392580  13.2526490  19.1541680
  59.1405310  13.5738540  19.5677080  57.8244400  12.8922070  19.8761590
  67.1757210   9.3606360  19.1017090  66.5695370   9.3837960  18.3612840
  66.8711320   8.6289400  19.6384340  68.6057580  13.0886650  17.7126500
  69.5579330  13.0044670  17.6626740  68.4585800  13.7528360  18.3860290
  71.4966780  12.4680860   3.2118410  71.2108290  12.0546000   2.3972590
  71.2986330  13.3968570   3.0918930  56.0590390   5.7399950  18.0977730
  56.5629410   5.1607230  18.6693960  55.3197810   6.0240180  18.6354100
  63.1128330   7.1470940  17.6313250  62.3474000   7.7155940  17.5467920
  63.2944290   6.8547150  16.7381480  66.2016740   7.5234170   2.2566010
  65.6526840   7.9703470   2.9008750  66.8236000   7.0183420   2.7803680
  70.2551680   8.8776270  18.1888270  70.9961150   9.2152030  17.6855730
  69.4924360   9.0468330  17.6358040  58.0913470   3.8829540  18.9927800
  58.1318810   3.5843410  19.9013030  58.9458970   4.2837150  18.8335320
  61.8691860   6.4825090   4.1531310  62.2908280   6.3164960   4.9962700
  61.9942700   5.6725320   3.6586450  60.0319280   2.4621640  16.9602290
  59.5015740   1.9712590  16.3325630  60.7007350   2.8905840  16.4260220
  68.9297340   6.9291100  16.7243480  69.3438360   7.0836180  17.5733900
  67.9948340   7.0546320  16.8869260  69.4019510   4.2687260  18.7282630
  69.9840280   3.5139580  18.6403110  69.5781280   4.7994700  17.9514110
  63.6912570   6.8811580  14.6939410  64.1100680   7.7244310  14.5215650
  62.7721200   7.0183620  14.4646190  66.0276470   4.6127760  16.0777250
  66.1472680   4.0168900  16.8172090  66.8870470   4.6497450  15.6578550
  68.3664370   5.1664950  14.6539760  67.8399590   5.6907570  14.0504900
  68.7095710   5.7992340  15.2849490  61.5419990  13.1864590  15.8097140
  61.0041080  13.9110650  15.4905840  61.7953950  12.7094930  15.0194480
  64.3982200  14.4215800  16.0683790  64.3240900  15.3250940  16.3756160
  63.4961040  14.1027700  16.0405860  64.9467530  13.5874310   3.6910150
  65.8418320  13.9259280   3.7128910  64.9785160  12.8653720   3.0634430
  58.5863690   8.9601360   1.9197150  59.0238560   9.5031030   2.5754730
  59.0711420   8.1348310   1.9293490  55.8009490  11.7490390   9.3717410
  56.1312500  10.8811450   9.1396050  56.2300490  11.9548910  10.2022370
  60.3971410  10.0799400   7.0319380  60.0966950   9.9564370   7.9323290
  60.2908900   9.2207990   6.6235110  56.2899700  12.6160980  12.1099040
  55.8530690  12.7961780  12.9423190  56.8577380  13.3735600  11.9680760
  71.9261880  12.1177980  16.3976350  71.3263870  12.1770540  15.6540270
  72.0555780  11.1782960  16.5273200  72.6219790   6.6043280   4.2380260
  73.3838700   7.1739930   4.3439950  72.6374160   6.0370480   5.0088570
  56.1224130   5.1281210   8.4687920  55.4672970   4.8592850   7.8247620
  56.9602080   5.0185690   8.0189900  73.6279760   7.4593380   9.0822190
  73.9988590   6.6760700   8.6758160  74.2681690   8.1482480   8.9039490
  70.6113520   8.8429960  14.4952510  69.7973360   9.2727120  14.7578300
  71.0187720   9.4548370  13.8821560  72.5704300   4.8346640   6.3882210
  72.1947900   4.0674570   5.9563500  71.8407420   5.2169340   6.8757140
  57.1600060   5.5133780  13.0091260  57.5273100   5.4261180  13.8887280
  56.5910880   4.7500330  12.9098120  71.9603920   3.9818160  16.0221730
  71.7290010   3.7530910  15.1219680  72.2208470   4.9017710  15.9766620
  56.7116060   2.4242870  16.9149680  55.8172110   2.3909630  17.2543390
  57.2513610   2.6229660  17.6800930  55.3362210   2.3380140   4.4113250
  54.4326290   2.6010340   4.2364910  55.8202830   2.6091310   3.6313210
  71.8455260   3.0604130   9.6889450  72.3692740   2.5666780   9.0579620
  72.4314680   3.1954490  10.4337020  72.0244980   3.1444000  13.2109000
  71.0747690   3.1107540  13.3253990  72.2057990   4.0544110  12.9758770
  71.3355230   2.3177480   5.6281860  71.8314350   2.0848350   6.4130740
  71.1371300   1.4789320   5.2119500  70.6689570  13.5948560   8.0220780
  71.2648640  13.2733130   7.3455200  70.9267720  13.1220380   8.8134050
  58.5752140  10.0266470  18.1711410  58.5321770   9.6559380  19.0525870
  58.7063150  10.9644040  18.3113230  62.2758170  11.5826060  13.7721130
  62.0349530  11.8500620  12.8851650  63.2160810  11.7531790  13.8271990
  73.5362330  13.6020440  14.5731770  73.0420610  13.9989310  13.8558900
  72.9275620  12.9769650  14.9669050  58.4140170  12.9728720  15.2909190
  57.8200490  12.8413420  16.0299230  58.4064010  12.1366860  14.8251290
  71.2201780  14.2443860  11.8518510  70.7604750  14.9959670  11.4776530
  70.5914240  13.5250330  11.7933310  58.0452400  10.3387100  14.2417230
  57.3186460   9.7192390  14.1743180  58.1061550  10.7327710  13.3715310
  61.6497500  12.5532100  11.0266640  62.1662520  11.9419460  10.5014900
  62.2994880  13.0560880  11.5177650  64.3893000  13.4440590  11.8535620
  64.6770810  13.1894890  10.9768630  64.9016220  12.8917950  12.4441190
  56.3282400  13.6561490   7.4513990  56.1604440  13.0232170   8.1495880
  55.4616910  13.8620890   7.1008180  57.9345100  12.3494720   4.8964130
  57.4092720  12.7302750   4.1926090  57.8589680  12.9745490   5.6173840
  64.4565360  14.3656690  19.2203820  65.3832670  14.1300960  19.2639780
  64.4415790  15.1928690  18.7389850  72.6910420  13.9082260   6.2178070
  72.8662610  13.2220000   5.5738990  71.9931990  14.4329310   5.8254740
  60.5338070  14.2977100   3.7713380  61.2656890  14.0136380   3.2237270
  60.7931740  14.0590380   4.6612760  59.6952860  10.4141830   3.7759710
  59.0661740  10.8826930   4.3245540  59.8100690   9.5691050   4.2105900
  71.0242920  13.5926550  19.0444860  71.8168240  13.0975780  18.8370820
  71.3176070  14.2716690  19.6520470  48.3759090  79.5621450  83.7978360
  48.2953140  78.6476060  83.5270070  47.9623510  80.0588520  83.0918070
  46.5077130  81.3400470  85.6787630  45.7319230  80.8600910  85.9686200
  47.1590060  80.6606120  85.5043790  40.5242960  81.6520280  86.5563390
  39.6927840  81.3968990  86.9559900  41.1323940  81.7231050  87.2921310
  38.9334910  76.6122170  80.3405780  38.0451610  76.9538140  80.2385660
  39.2176100  76.4122490  79.4486610  36.8967920  79.2127820  86.2245480
  37.4684030  78.4450020  86.2249120  36.8969460  79.5116580  85.3152090
  45.9486120  84.0157660  85.6857790  45.8794400  83.0747600  85.5246920
  46.7105980  84.1059070  86.2580360  38.1392790  74.6212180  88.0114410
  37.9595630  73.7237930  88.2917170  37.7372870  75.1684050  88.6861360
  46.9791290  76.8228040  85.9126720  47.3556110  75.9499920  85.8000390
  46.8810800  77.1586740  85.0217160  41.1096300  75.1953670  81.3744160
  41.2163050  76.0957400  81.6812920  40.1988660  75.1471640  81.0838810
  50.7615410  74.3178480  82.8455060  51.5825030  73.8275050  82.8880540
  50.7949490  74.9076140  83.5986900  38.7579460  77.1172680  86.6196750
  39.4389570  77.3811050  87.2384150  38.4427510  76.2773550  86.9534760
  42.9504030  78.1640040  85.7069340  43.4582250  78.6621010  86.3474360
  43.4817270  77.3875240  85.5308700  55.0514960  76.3345230  89.4098690
  54.3467130  76.7226940  88.8913800  55.3172880  77.0295520  90.0119620
  41.2340130  72.8038600  89.9732760  41.2358570  73.3210990  89.1678660
  40.4044440  72.3268780  89.9502690  47.6211220  82.9157910  81.4722660
  47.0028490  83.3807360  80.9085380  48.1334470  83.6085390  81.8892170
  42.4842980  82.4433780  88.1506260  42.1512360  83.0702700  88.7927330
  42.6609660  82.9695660  87.3707930  50.9976890  76.2578860  85.6182600
  50.2932460  76.5463750  86.1985710  51.3589050  77.0678970  85.2582160
  40.9155460  74.5148560  87.9803210  41.2572270  75.3590610  87.6857080
  39.9771270  74.6632300  88.0968550  54.0663810  75.7033650  86.0091810
  53.1188720  75.7372630  86.1407240  54.3913800  76.5172600  86.3941170
  44.5983350  72.0030830  84.3047800  44.9058330  71.4477720  83.5883300
  43.6684050  72.1375290  84.1220790  49.5483850  82.6227960  87.9237870
  49.9652640  82.4088070  87.0891330  50.2723670  82.8800750  88.4946490
  46.9864110  80.0679660  81.0407920  46.0593390  80.0017040  81.2696390
  47.1388930  81.0059790  80.9263160  46.9733190  76.3396660  78.0375080
  46.0336860  76.5010620  78.1227540  47.2916450  77.0582340  77.4911070
  53.4945950  81.0215180  88.0154110  52.6664580  81.0908270  87.5404240
  54.0896430  81.6069490  87.5469940  51.0161400  81.6299960  81.5443170
  50.3973820  81.2919510  80.8969470  50.9985850  80.9859720  82.2522360
  50.4587960  77.8084500  88.9608980  50.0459140  78.6338210  89.2148970
  49.7263910  77.2229540  88.7685340  42.5920750  80.5944400  83.8227650
  42.1877750  79.8821650  83.3273550  42.6783870  80.2497640  84.7115690
  41.3049370  77.3687610  87.6026690  41.8563960  77.4782950  86.8279940
  41.8192880  77.7425210  88.3181920  49.1926100  80.8686770  78.5515920
  49.6319380  80.0309200  78.4053740  49.9054520  81.5016170  78.6380060
  40.9792100  80.8906970  91.2132030  40.8399870  81.7629770  91.5819430
  40.0973460  80.5479780  91.0679970  52.7743240  72.1229580  76.8656960
  52.4615900  72.2156410  77.7656030  53.5355710  72.7010610  76.8154390
  39.2925380  79.4889380  81.3234300  39.1722980  80.2151470  80.7115570
  38.9826270  78.7192290  80.8462210  36.9310750  82.6604520  87.1302940
  37.0091170  82.7953290  86.1858660  37.5452430  81.9520410  87.3231060
  53.9844530  76.8601080  92.8431100  53.3688800  77.3680750  92.3146560
  53.6640950  75.9599410  92.7857040  36.9870270  83.7018690  89.6697400
  37.1501310  83.2324050  88.8516770  37.4522720  83.1942250  90.3346240
  41.7589040  72.8324450  84.7057970  41.3157190  73.6133990  84.3742490
  42.3174030  73.1554340  85.4128910  46.0458850  75.6992970  90.3093290
  45.5838220  75.9075990  91.1213230  45.6436960  74.8852320  90.0063960
  51.0463360  76.9201920  91.4389950  50.1956950  76.6207670  91.7599020
  50.8865150  77.1643930  90.5273770  48.1413070  78.4203670  93.5388740
  48.4666480  77.5867420  93.1990970  48.9293400  78.9432190  93.6867070
  44.8747860  72.4535150  79.5863800  44.2502040  72.4495020  80.3117110
  44.7877980  71.5866110  79.1899770  43.7964940  73.3771780  86.5647570
  44.0937270  74.2834610  86.4839590  44.3450500  72.8890560  85.9507140
  41.5503260  77.9558020  82.4339220  41.3244180  77.7395190  83.3385840
  40.7695790  78.3886480  82.0885190  48.7801020  77.9621390  81.0329870
  48.1809910  78.6857190  80.8493490  49.3280630  77.8998170  80.2506320
  43.9902470  78.8543600  93.0999490  43.8946070  77.9138330  92.9499890
  44.8334450  79.0758670  92.7047560  47.3865890  76.5984930  83.0633150
  47.7795460  76.9157130  82.2501840  47.7482740  75.7196810  83.1777670
  39.1213010  75.2657270  91.2533270  38.7276400  76.1132480  91.4606050
  38.4331410  74.6283640  91.4441910  36.4230060  73.1885730  85.2863350
  36.1343110  73.7588590  85.9988330  37.1675820  72.7090180  85.6494580
  36.6100290  77.1305850  76.4966070  36.5274960  78.0736610  76.6381060
  36.2583350  76.9880760  75.6178420  47.9721030  79.1890680  87.1583930
  47.2402150  79.6977490  87.5074030  47.5745370  78.3720660  86.8572710
  44.4098420  75.8644880  85.5636420  44.4134480  75.4234830  84.7140960
  45.3049540  76.1862210  85.6708240  40.2600800  75.7471370  84.5230630
  39.9200850  76.2246600  85.2797680  39.4978120  75.2936490  84.1631730
  44.4718570  76.8656960  78.5543180  44.5931390  76.8243440  79.5029000
  44.0867080  77.7281110  78.3989910  48.4346940  74.6424360  86.5706870
  48.4519680  75.0933010  87.4148720  48.1862520  73.7430000  86.7840310
  43.4840070  79.1758100  77.9526480  42.9156970  78.7276350  77.3262390
  44.1929070  79.5350880  77.4191630  51.8617690  72.0556540  92.4093250
  52.1863460  71.3246200  92.9351230  51.8974200  71.7370180  91.5074240
  38.5609250  83.0770120  91.8293210  38.1764040  82.4363790  92.4276170
  38.8721440  83.7806240  92.3987940  44.7106390  79.9246660  87.3101830
  45.0776520  79.4505230  88.0563170  44.5211450  80.7988230  87.6510170
  37.5746880  74.6690350  83.4395300  37.2893800  74.3046020  84.2773920
  37.5125740  73.9370810  82.8258440  42.5005760  78.9655300  89.6286040
  42.1962830  79.8447280  89.8536400  43.4552220  79.0255090  89.6643480
  41.0287550  83.1716290  80.2252890  40.2549810  82.6313910  80.0651610
  41.7582180  82.6522900  79.8870650  51.7875530  82.1681650  86.0179280
  52.5074650  82.6636940  85.6275390  51.5857350  81.4899540  85.3733150
  47.2485470  73.5619610  80.1608670  46.4350080  73.0632780  80.0853980
  47.0547420  74.4017860  79.7445020  47.1694330  82.2390710  91.9048280
  47.1031640  81.3186380  91.6505870  46.5399470  82.3366150  92.6192920
  49.9633860  77.9339260  78.4570830  50.8513480  78.2456490  78.2822170
  49.9338950  77.0611510  78.0651410  41.0724950  82.8396670  83.8631700
  41.5903620  82.0364930  83.8088590  40.6208970  82.7775810  84.7048530
  38.5569490  79.8058040  90.7757400  38.1984430  80.4711890  91.3630740
  38.2624050  78.9741590  91.1470020  41.7582610  80.2642280  93.6596950
  41.4582750  80.4099460  92.7624770  42.5293850  79.7047570  93.5670340
  52.2348130  79.2451100  77.9250690  52.1511850  79.6765320  77.0747130
  52.9542320  79.7049450  78.3577510  53.3122270  81.7018620  91.0020660
  52.5870460  82.2947400  90.8050050  53.8397730  81.6942160  90.2034030
  48.8421860  83.4278790  84.5004510  49.1945680  82.8306920  83.8405880
  47.9584190  83.1023020  84.6712760  37.0677540  79.8049300  77.3992000
  37.9372390  80.0874100  77.6827920  36.5767860  80.6185170  77.2840810
  44.2312350  81.1922510  81.5200280  44.6875130  82.0027760  81.7460470
  43.8800560  80.8745650  82.3518770  40.1324130  71.5360160  81.9922800
  40.0038760  71.5278060  82.9407720  39.3086150  71.8743250  81.6413810
  37.1318060  73.2951280  91.4529500  36.4176580  73.4948200  92.0582110
  37.5513100  72.5190850  91.8244300  51.2349010  82.9081760  78.8523330
  50.9470710  83.3694450  79.6401210  52.0301180  82.4479530  79.1207550
  39.0524050  81.6222770  79.5274060  38.4452000  82.3621670  79.5369360
  39.5273400  81.7122130  78.7012260  48.6256840  75.7873590  89.2030950
  48.9937660  74.9668800  89.5310520  47.7655040  75.8475480  89.6186600
  51.9918870  74.7430530  80.0118510  51.3632030  74.8476200  79.2976740
  51.4970790  74.9627310  80.8012390  43.9602900  77.0216480  81.4276390
  43.2519050  77.4902820  81.8690000  44.2447380  76.3638490  82.0621580
  45.5858830  78.4413180  89.4268920  46.0844080  78.9159000  90.0920770
  45.7281780  77.5176700  89.6338950  47.9918330  73.7467140  82.8672180
  47.8686110  73.7653270  81.9181690  48.9402890  73.7946080  82.9870580
  42.1637920  75.3301560  78.8027100  43.0128450  75.7671710  78.7367290
  41.7969190  75.6421820  79.6299160  52.7925690  74.6581140  90.2697310
  52.2899290  75.3986540  90.6091120  53.6082350  75.0465140  89.9534100
  51.0847700  79.9014320  83.7158670  50.1437840  79.9164550  83.8906360
  51.3991770  79.1150280  84.1618970  41.0629340  81.5833920  77.2762630
  41.8292610  81.4715280  77.8388060  41.1404030  80.8871890  76.6239400
  39.7576100  79.0158990  77.9595520  39.8379690  78.0686500  78.0712920
  40.6495850  79.3465870  78.0656180  37.2846900  80.8373910  93.1951690
  37.7885920  80.2581190  93.7667920  36.5454320  81.1214140  93.7328060
  44.1870520  83.5588100  76.7497980  44.0821160  82.9440450  77.4759360
  44.0194740  83.0353990  75.9660990  44.3384840  82.2444900  92.7287210
  43.5730510  82.8129900  92.6441880  44.5200800  81.9521110  91.8355440
  47.4273250  82.6208130  77.3539970  46.8783350  83.0677430  77.9982710
  48.0492510  82.1157380  77.8777640  43.0948370  81.5799050  79.2505270
  43.5164790  81.4138920  80.0936660  43.2199210  80.7699280  78.7560410
  41.2575790  77.5595600  92.0576250  40.7272250  77.0686550  91.4299590
  41.9263860  77.9879800  91.5234180  45.6076010  80.6036660  76.4982370
  46.1281670  79.8885680  76.1323520  46.2544410  81.2422530  76.7982880
  50.1553850  82.0265060  91.8217440  50.5694870  82.1810140  92.6707860
  49.2204850  82.1520280  91.9843220  50.6276020  79.3661220  93.8256590
  51.2096790  78.6113540  93.7377070  50.8037790  79.8968660  93.0488070
  41.7448090  74.5257970  92.1373540  41.6504960  73.9078720  91.4124410
  41.1645480  75.2524260  91.9103450  44.5109530  73.0831210  89.1700930
  44.0626830  73.1055470  88.3246480  43.8774730  72.6850230  89.7671230
  44.9169080  81.9785540  89.7913370  45.3357190  82.8218270  89.6189610
  43.9977710  82.1157580  89.5620150  47.2532980  79.7101720  91.1751210
  47.3729190  79.1142860  91.9146050  48.1126980  79.7471410  90.7552510
  49.5920880  80.2638910  89.7513720  49.0656100  80.7881530  89.1478860
  49.9352220  80.8966300  90.3823450  41.9907270  77.6532280  76.1963430
  41.7896330  76.7899640  76.5576770  41.8199320  77.5665640  75.2585030
  44.0201750  76.2523070  92.4327030  44.6101440  75.9438920  93.1204850
  43.2021990  75.7802820  92.5886930  48.8395180  75.8688880  92.6660050
  48.1510700  75.2070420  92.6010040  49.5601200  75.4227150  93.1108510
  49.4695580  72.4640510  78.7250310  49.7497870  71.6208410  79.0809730
  48.6961310  72.6963620  79.2389060  40.7890070  74.7532900  76.1841310
  41.0915970  74.7600330  75.2760460  41.5284660  74.4030760  76.6808970
  44.0075000  73.6967520  77.1697510  43.6597000  73.0191510  76.5899960
  44.2087770  73.2357030  77.9840900  53.8476300  81.7017240  79.3354220
  54.6095210  82.2713890  79.4413910  53.8630670  81.1344440  80.1062530
  37.3480640  80.2255170  83.5661880  36.6929480  79.9566810  82.9221580
  38.1858590  80.1159650  83.1163860  54.8536270  82.5567340  84.1796150
  55.2245100  81.7734660  83.7732120  55.4938200  83.2456440  84.0013450
  53.8995470  81.9951610  76.4926740  54.1744310  82.9030490  76.3645960
  53.7106210  81.9314140  77.4288730  50.2971080  75.0196460  77.7880370
  50.7155960  74.8327440  76.9477030  49.9907140  74.1675510  78.0983300
  53.7960810  79.9320600  81.4856170  53.4204410  79.1648530  81.0537460
  53.0663930  80.3143300  81.9731100  38.3856570  80.6107740  88.1065220
  38.7529610  80.5235140  88.9861240  37.8167390  79.8474290  88.0072080
  53.1860430  79.0792120  91.1195690  52.9546520  78.8504870  90.2193640
  53.4464980  79.9991670  91.0740580  37.9372570  77.5216830  92.0123640
  37.0428620  77.4883590  92.3517350  38.4770120  77.7203620  92.7774890
  36.5618720  77.4354100  79.5087210  35.6582800  77.6984300  79.3338870
  37.0459340  77.7065270  78.7287170  53.0711770  78.1578090  84.7863410
  53.5949250  77.6640740  84.1553580  53.6571190  78.2928450  85.5310980
  53.2501490  78.2417960  88.3082960  52.3004200  78.2081500  88.4227950
  53.4314500  79.1518070  88.0732730  39.1045930  76.4919640  77.4181590
  39.8137630  76.0702860  76.9328870  38.3885870  76.5594870  76.7864940
  38.7520090  72.5458970  76.4584240  39.4748220  73.0867910  76.7765460
  39.0244610  72.2722390  75.5825780  52.5611740  77.4151440  80.7255820
  53.0570860  77.1822310  81.5104700  52.3627810  76.5763280  80.3093460
  38.4412280  71.7965160  86.3606860  39.0888470  71.2462540  85.9202020
  38.8614120  72.0508310  87.1822670  53.9898900  76.0512390  83.2593500
  53.8798180  75.8968430  84.1975770  54.7506490  75.5233330  83.0168910
  52.3364620  71.9906520  89.7176500  52.9736840  72.6040660  90.0835690
  52.4839510  72.0267180  88.7725730  54.8789170  73.8820310  76.4999640
  55.8038480  73.7501490  76.2917930  54.8564960  73.9613130  77.4536090
  54.9527660  74.6530970  79.1256350  54.1579160  74.5876090  79.6549260
  55.1570940  75.5881610  79.1141700  38.1944280  71.9520830  89.1032180
  37.8459100  72.4084650  89.8690360  37.8631980  71.0577960  89.1854610
  45.7069100  73.1432710  92.6251600  45.6457990  73.7354540  93.3747010
  46.6469480  73.0358670  92.4801860  48.3443660  72.8002770  92.2643890
  48.9584070  73.1182060  91.6024970  48.8893220  72.3151360  92.8839750
  38.8664920  71.4797030  92.3782950  39.4147910  71.2985080  91.6149060
  38.9320230  70.6891140  92.9139260  49.0851700  71.3634910  88.5913180
  48.2111540  71.6970020  88.3886110  48.9762450  70.8908090  89.4165050
  49.9923680  73.5705780  89.9754900  49.6637040  72.7557540  89.5956630
  50.9405980  73.5275590  89.8520590  46.8326520  72.2804750  87.5306090
  46.0498310  72.7550250  87.8102850  46.5389450  71.3759580  87.4219270
  51.3847590  72.9827850  85.5755180  51.8255680  72.9272950  84.7276780
  51.1155180  73.8985860  85.6465360  53.2486160  72.6143090  83.5864000
  53.1874560  71.6704310  83.4395020  54.0278190  72.7223180  84.1317460
  38.1766930  72.5852230  80.0519810  38.9346290  72.6981110  79.4783840
  37.7144100  73.4221430  80.0063240  44.7180740  74.6991500  83.0422120
  43.9055250  74.3248390  82.7018000  45.2222380  73.9436580  83.3443310
  49.2205720  71.3633950  84.2805190  49.8235090  71.9354160  84.7553710
  48.4798710  71.9273390  84.0579090  52.3640320  71.7655510  79.5545470
  52.5590950  72.6638960  79.8212900  51.5770190  71.5342590  80.0478420
  40.5492080  73.1116280  78.5921780  41.0784840  72.3246080  78.4629730
  41.1820400  73.7907470  78.8257310  42.7429920  72.8491420  81.6467170
  42.1132660  72.1478730  81.8137300  42.2035060  73.6095550  81.4300330
  48.3759090  79.5621450  65.0234870  48.2953140  78.6476060  64.7526580
  47.9623510  80.0588520  64.3174580  46.5077130  81.3400470  66.9044140
  45.7319230  80.8600910  67.1942710  47.1590060  80.6606120  66.7300300
  40.5242960  81.6520280  67.7819900  39.6927840  81.3968990  68.1816410
  41.1323940  81.7231050  68.5177820  38.9334910  76.6122170  61.5662290
  38.0451610  76.9538140  61.4642170  39.2176100  76.4122490  60.6743120
  36.8967920  79.2127820  67.4501990  37.4684030  78.4450020  67.4505630
  36.8969460  79.5116580  66.5408600  45.9486120  84.0157660  66.9114300
  45.8794400  83.0747600  66.7503430  46.7105980  84.1059070  67.4836870
  38.1392790  74.6212180  69.2370920  37.9595630  73.7237930  69.5173680
  37.7372870  75.1684050  69.9117870  46.9791290  76.8228040  67.1383230
  47.3556110  75.9499920  67.0256900  46.8810800  77.1586740  66.2473670
  41.1096300  75.1953670  62.6000670  41.2163050  76.0957400  62.9069430
  40.1988660  75.1471640  62.3095320  50.7615410  74.3178480  64.0711570
  51.5825030  73.8275050  64.1137050  50.7949490  74.9076140  64.8243410
  38.7579460  77.1172680  67.8453260  39.4389570  77.3811050  68.4640660
  38.4427510  76.2773550  68.1791270  42.9504030  78.1640040  66.9325850
  43.4582250  78.6621010  67.5730870  43.4817270  77.3875240  66.7565210
  55.0514960  76.3345230  70.6355200  54.3467130  76.7226940  70.1170310
  55.3172880  77.0295520  71.2376130  41.2340130  72.8038600  71.1989270
  41.2358570  73.3210990  70.3935170  40.4044440  72.3268780  71.1759200
  47.6211220  82.9157910  62.6979170  47.0028490  83.3807360  62.1341890
  48.1334470  83.6085390  63.1148680  42.4842980  82.4433780  69.3762770
  42.1512360  83.0702700  70.0183840  42.6609660  82.9695660  68.5964440
  50.9976890  76.2578860  66.8439110  50.2932460  76.5463750  67.4242220
  51.3589050  77.0678970  66.4838670  40.9155460  74.5148560  69.2059720
  41.2572270  75.3590610  68.9113590  39.9771270  74.6632300  69.3225060
  54.0663810  75.7033650  67.2348320  53.1188720  75.7372630  67.3663750
  54.3913800  76.5172600  67.6197680  44.5983350  72.0030830  65.5304310
  44.9058330  71.4477720  64.8139810  43.6684050  72.1375290  65.3477300
  49.5483850  82.6227960  69.1494380  49.9652640  82.4088070  68.3147840
  50.2723670  82.8800750  69.7203000  46.9864110  80.0679660  62.2664430
  46.0593390  80.0017040  62.4952900  47.1388930  81.0059790  62.1519670
  46.9733190  76.3396660  59.2631590  46.0336860  76.5010620  59.3484050
  47.2916450  77.0582340  58.7167580  53.4945950  81.0215180  69.2410620
  52.6664580  81.0908270  68.7660750  54.0896430  81.6069490  68.7726450
  51.0161400  81.6299960  62.7699680  50.3973820  81.2919510  62.1225980
  50.9985850  80.9859720  63.4778870  50.4587960  77.8084500  70.1865490
  50.0459140  78.6338210  70.4405480  49.7263910  77.2229540  69.9941850
  42.5920750  80.5944400  65.0484160  42.1877750  79.8821650  64.5530060
  42.6783870  80.2497640  65.9372200  41.3049370  77.3687610  68.8283200
  41.8563960  77.4782950  68.0536450  41.8192880  77.7425210  69.5438430
  49.1926100  80.8686770  59.7772430  49.6319380  80.0309200  59.6310250
  49.9054520  81.5016170  59.8636570  40.9792100  80.8906970  72.4388540
  40.8399870  81.7629770  72.8075940  40.0973460  80.5479780  72.2936480
  39.2925380  79.4889380  62.5490810  39.1722980  80.2151470  61.9372080
  38.9826270  78.7192290  62.0718720  36.9310750  82.6604520  68.3559450
  37.0091170  82.7953290  67.4115170  37.5452430  81.9520410  68.5487570
  53.9844530  76.8601080  74.0687610  53.3688800  77.3680750  73.5403070
  53.6640950  75.9599410  74.0113550  36.9870270  83.7018690  70.8953910
  37.1501310  83.2324050  70.0773280  37.4522720  83.1942250  71.5602750
  41.7589040  72.8324450  65.9314480  41.3157190  73.6133990  65.5999000
  42.3174030  73.1554340  66.6385420  46.0458850  75.6992970  71.5349800
  45.5838220  75.9075990  72.3469740  45.6436960  74.8852320  71.2320470
  51.0463360  76.9201920  72.6646460  50.1956950  76.6207670  72.9855530
  50.8865150  77.1643930  71.7530280  48.1413070  78.4203670  74.7645250
  48.4666480  77.5867420  74.4247480  48.9293400  78.9432190  74.9123580
  44.8747860  72.4535150  60.8120310  44.2502040  72.4495020  61.5373620
  44.7877980  71.5866110  60.4156280  43.7964940  73.3771780  67.7904080
  44.0937270  74.2834610  67.7096100  44.3450500  72.8890560  67.1763650
  41.5503260  77.9558020  63.6595730  41.3244180  77.7395190  64.5642350
  40.7695790  78.3886480  63.3141700  48.7801020  77.9621390  62.2586380
  48.1809910  78.6857190  62.0750000  49.3280630  77.8998170  61.4762830
  43.9902470  78.8543600  74.3256000  43.8946070  77.9138330  74.1756400
  44.8334450  79.0758670  73.9304070  47.3865890  76.5984930  64.2889660
  47.7795460  76.9157130  63.4758350  47.7482740  75.7196810  64.4034180
  39.1213010  75.2657270  72.4789780  38.7276400  76.1132480  72.6862560
  38.4331410  74.6283640  72.6698420  45.6958060  75.3492240  75.5486520
  45.0056380  75.1564440  76.1832610  46.4390360  75.6326880  76.0810820
  36.4230060  73.1885730  66.5119860  36.1343110  73.7588590  67.2244840
  37.1675820  72.7090180  66.8751090  36.6100290  77.1305850  57.7222580
  36.5274960  78.0736610  57.8637570  36.2583350  76.9880760  56.8434930
  47.9721030  79.1890680  68.3840440  47.2402150  79.6977490  68.7330540
  47.5745370  78.3720660  68.0829220  44.4098420  75.8644880  66.7892930
  44.4134480  75.4234830  65.9397470  45.3049540  76.1862210  66.8964750
  40.2600800  75.7471370  65.7487140  39.9200850  76.2246600  66.5054190
  39.4978120  75.2936490  65.3888240  44.4718570  76.8656960  59.7799690
  44.5931390  76.8243440  60.7285510  44.0867080  77.7281110  59.6246420
  48.4346940  74.6424360  67.7963380  48.4519680  75.0933010  68.6405230
  48.1862520  73.7430000  68.0096820  43.4840070  79.1758100  59.1782990
  42.9156970  78.7276350  58.5518900  44.1929070  79.5350880  58.6448140
  51.8617690  72.0556540  73.6349760  52.1863460  71.3246200  74.1607740
  51.8974200  71.7370180  72.7330750  38.5609250  83.0770120  73.0549720
  38.1764040  82.4363790  73.6532680  38.8721440  83.7806240  73.6244450
  44.7106390  79.9246660  68.5358340  45.0776520  79.4505230  69.2819680
  44.5211450  80.7988230  68.8766680  37.5746880  74.6690350  64.6651810
  37.2893800  74.3046020  65.5030430  37.5125740  73.9370810  64.0514950
  42.5005760  78.9655300  70.8542550  42.1962830  79.8447280  71.0792910
  43.4552220  79.0255090  70.8899990  41.0287550  83.1716290  61.4509400
  40.2549810  82.6313910  61.2908120  41.7582180  82.6522900  61.1127160
  51.7875530  82.1681650  67.2435790  52.5074650  82.6636940  66.8531900
  51.5857350  81.4899540  66.5989660  47.2485470  73.5619610  61.3865180
  46.4350080  73.0632780  61.3110490  47.0547420  74.4017860  60.9701530
  47.1694330  82.2390710  73.1304790  47.1031640  81.3186380  72.8762380
  46.5399470  82.3366150  73.8449430  49.9633860  77.9339260  59.6827340
  50.8513480  78.2456490  59.5078680  49.9338950  77.0611510  59.2907920
  41.0724950  82.8396670  65.0888210  41.5903620  82.0364930  65.0345100
  40.6208970  82.7775810  65.9305040  38.5569490  79.8058040  72.0013910
  38.1984430  80.4711890  72.5887250  38.2624050  78.9741590  72.3726530
  41.7582610  80.2642280  74.8853460  41.4582750  80.4099460  73.9881280
  42.5293850  79.7047570  74.7926850  52.2348130  79.2451100  59.1507200
  52.1511850  79.6765320  58.3003640  52.9542320  79.7049450  59.5834020
  53.3122270  81.7018620  72.2277170  52.5870460  82.2947400  72.0306560
  53.8397730  81.6942160  71.4290540  48.8421860  83.4278790  65.7261020
  49.1945680  82.8306920  65.0662390  47.9584190  83.1023020  65.8969270
  37.0677540  79.8049300  58.6248510  37.9372390  80.0874100  58.9084430
  36.5767860  80.6185170  58.5097320  44.2312350  81.1922510  62.7456790
  44.6875130  82.0027760  62.9716980  43.8800560  80.8745650  63.5775280
  40.1324130  71.5360160  63.2179310  40.0038760  71.5278060  64.1664230
  39.3086150  71.8743250  62.8670320  37.1318060  73.2951280  72.6786010
  36.4176580  73.4948200  73.2838620  37.5513100  72.5190850  73.0500810
  51.2349010  82.9081760  60.0779840  50.9470710  83.3694450  60.8657720
  52.0301180  82.4479530  60.3464060  39.0524050  81.6222770  60.7530570
  38.4452000  82.3621670  60.7625870  39.5273400  81.7122130  59.9268770
  48.6256840  75.7873590  70.4287460  48.9937660  74.9668800  70.7567030
  47.7655040  75.8475480  70.8443110  51.9918870  74.7430530  61.2375020
  51.3632030  74.8476200  60.5233250  51.4970790  74.9627310  62.0268900
  43.9602900  77.0216480  62.6532900  43.2519050  77.4902820  63.0946510
  44.2447380  76.3638490  63.2878090  45.5858830  78.4413180  70.6525430
  46.0844080  78.9159000  71.3177280  45.7281780  77.5176700  70.8595460
  47.9918330  73.7467140  64.0928690  47.8686110  73.7653270  63.1438200
  48.9402890  73.7946080  64.2127090  42.1637920  75.3301560  60.0283610
  43.0128450  75.7671710  59.9623800  41.7969190  75.6421820  60.8555670
  52.7925690  74.6581140  71.4953820  52.2899290  75.3986540  71.8347630
  53.6082350  75.0465140  71.1790610  51.0847700  79.9014320  64.9415180
  50.1437840  79.9164550  65.1162870  51.3991770  79.1150280  65.3875480
  41.0629340  81.5833920  58.5019140  41.8292610  81.4715280  59.0644570
  41.1404030  80.8871890  57.8495910  39.7576100  79.0158990  59.1852030
  39.8379690  78.0686500  59.2969430  40.6495850  79.3465870  59.2912690
  37.2846900  80.8373910  74.4208200  37.7885920  80.2581190  74.9924430
  36.5454320  81.1214140  74.9584570  44.1870520  83.5588100  57.9754490
  44.0821160  82.9440450  58.7015870  44.0194740  83.0353990  57.1917500
  44.3384840  82.2444900  73.9543720  43.5730510  82.8129900  73.8698390
  44.5200800  81.9521110  73.0611950  47.4273250  82.6208130  58.5796480
  46.8783350  83.0677430  59.2239220  48.0492510  82.1157380  59.1034150
  39.3169980  78.9803500  75.3158270  39.3575320  78.6817370  76.2243500
  40.1715480  79.3811110  75.1565790  43.0948370  81.5799050  60.4761780
  43.5164790  81.4138920  61.3193170  43.2199210  80.7699280  59.9816920
  41.2575790  77.5595600  73.2832760  40.7272250  77.0686550  72.6556100
  41.9263860  77.9879800  72.7490690  45.6076010  80.6036660  57.7238880
  46.1281670  79.8885680  57.3580030  46.2544410  81.2422530  58.0239390
  50.1553850  82.0265060  73.0473950  50.5694870  82.1810140  73.8964370
  49.2204850  82.1520280  73.2099730  50.6276020  79.3661220  75.0513100
  51.2096790  78.6113540  74.9633580  50.8037790  79.8968660  74.2744580
  41.7448090  74.5257970  73.3630050  41.6504960  73.9078720  72.6380920
  41.1645480  75.2524260  73.1359960  44.5109530  73.0831210  70.3957440
  44.0626830  73.1055470  69.5502990  43.8774730  72.6850230  70.9927740
  44.9169080  81.9785540  71.0169880  45.3357190  82.8218270  70.8446120
  43.9977710  82.1157580  70.7876660  47.2532980  79.7101720  72.4007720
  47.3729190  79.1142860  73.1402560  48.1126980  79.7471410  71.9809020
  49.5920880  80.2638910  70.9770230  49.0656100  80.7881530  70.3735370
  49.9352220  80.8966300  71.6079960  41.9907270  77.6532280  57.4219940
  41.7896330  76.7899640  57.7833280  41.8199320  77.5665640  56.4841540
  44.0201750  76.2523070  73.6583540  44.6101440  75.9438920  74.3461360
  43.2021990  75.7802820  73.8143440  48.8395180  75.8688880  73.8916560
  48.1510700  75.2070420  73.8266550  49.5601200  75.4227150  74.3365020
  40.7890070  74.7532900  57.4097820  41.0915970  74.7600330  56.5016970
  41.5284660  74.4030760  57.9065480  44.0075000  73.6967520  58.3954020
  43.6597000  73.0191510  57.8156470  44.2087770  73.2357030  59.2097410
  53.8476300  81.7017240  60.5610730  54.6095210  82.2713890  60.6670420
  53.8630670  81.1344440  61.3319040  37.3480640  80.2255170  64.7918390
  36.6929480  79.9566810  64.1478090  38.1858590  80.1159650  64.3420370
  54.8536270  82.5567340  65.4052660  55.2245100  81.7734660  64.9988630
  55.4938200  83.2456440  65.2269960  53.8995470  81.9951610  57.7183250
  54.1744310  82.9030490  57.5902470  53.7106210  81.9314140  58.6545240
  53.7960810  79.9320600  62.7112680  53.4204410  79.1648530  62.2793970
  53.0663930  80.3143300  63.1987610  38.3856570  80.6107740  69.3321730
  38.7529610  80.5235140  70.2117750  37.8167390  79.8474290  69.2328590
  53.1860430  79.0792120  72.3452200  52.9546520  78.8504870  71.4450150
  53.4464980  79.9991670  72.2997090  37.9372570  77.5216830  73.2380150
  37.0428620  77.4883590  73.5773860  38.4770120  77.7203620  74.0031400
  51.6248500  74.3048550  75.1231900  52.5018680  74.3131950  75.5065900
  51.6369340  73.5679390  74.5124250  36.5618720  77.4354100  60.7343720
  35.6582800  77.6984300  60.5595380  37.0459340  77.7065270  59.9543680
  53.0711770  78.1578090  66.0119920  53.5949250  77.6640740  65.3810090
  53.6571190  78.2928450  66.7567490  53.2501490  78.2417960  69.5339470
  52.3004200  78.2081500  69.6484460  53.4314500  79.1518070  69.2989240
  39.1045930  76.4919640  58.6438100  39.8137630  76.0702860  58.1585380
  38.3885870  76.5594870  58.0121450  38.7520090  72.5458970  57.6840750
  39.4748220  73.0867910  58.0021970  39.0244610  72.2722390  56.8082290
  52.5611740  77.4151440  61.9512330  53.0570860  77.1822310  62.7361210
  52.3627810  76.5763280  61.5349970  38.4412280  71.7965160  67.5863370
  39.0888470  71.2462540  67.1458530  38.8614120  72.0508310  68.4079180
  53.9898900  76.0512390  64.4850010  53.8798180  75.8968430  65.4232280
  54.7506490  75.5233330  64.2425420  52.3364620  71.9906520  70.9433010
  52.9736840  72.6040660  71.3092200  52.4839510  72.0267180  69.9982240
  54.9527660  74.6530970  60.3512860  54.1579160  74.5876090  60.8805770
  55.1570940  75.5881610  60.3398210  38.1944280  71.9520830  70.3288690
  37.8459100  72.4084650  71.0946870  37.8631980  71.0577960  70.4111120
  45.7069100  73.1432710  73.8508110  45.6457990  73.7354540  74.6003520
  46.6469480  73.0358670  73.7058370  48.3443660  72.8002770  73.4900400
  48.9584070  73.1182060  72.8281480  48.8893220  72.3151360  74.1096260
  38.8664920  71.4797030  73.6039460  39.4147910  71.2985080  72.8405570
  38.9320230  70.6891140  74.1395770  49.0851700  71.3634910  69.8169690
  48.2111540  71.6970020  69.6142620  48.9762450  70.8908090  70.6421560
  49.9923680  73.5705780  71.2011410  49.6637040  72.7557540  70.8213140
  50.9405980  73.5275590  71.0777100  46.8326520  72.2804750  68.7562600
  46.0498310  72.7550250  69.0359360  46.5389450  71.3759580  68.6475780
  51.3847590  72.9827850  66.8011690  51.8255680  72.9272950  65.9533290
  51.1155180  73.8985860  66.8721870  53.2486160  72.6143090  64.8120510
  53.1874560  71.6704310  64.6651530  54.0278190  72.7223180  65.3573970
  38.1766930  72.5852230  61.2776320  38.9346290  72.6981110  60.7040350
  37.7144100  73.4221430  61.2319750  44.7180740  74.6991500  64.2678630
  43.9055250  74.3248390  63.9274510  45.2222380  73.9436580  64.5699820
  49.2205720  71.3633950  65.5061700  49.8235090  71.9354160  65.9810220
  48.4798710  71.9273390  65.2835600  40.5492080  73.1116280  59.8178290
  41.0784840  72.3246080  59.6886240  41.1820400  73.7907470  60.0513820
  42.7429920  72.8491420  62.8723680  42.1132660  72.1478730  63.0393810
  42.2035060  73.6095550  62.6556840  42.8685480  72.1275400  75.3076170
  42.5869750  72.6309000  74.5436990  43.2505180  71.3297150  74.9418300
  49.4700940  71.5428980  75.8856640  49.3566390  71.8623590  76.7808160
  50.2870680  71.9441490  75.5893920  48.3759090  79.5621450  46.2491380
  48.2953140  78.6476060  45.9783090  47.9623510  80.0588520  45.5431090
  46.5077130  81.3400470  48.1300650  45.7319230  80.8600910  48.4199220
  47.1590060  80.6606120  47.9556810  40.5242960  81.6520280  49.0076410
  39.6927840  81.3968990  49.4072920  41.1323940  81.7231050  49.7434330
  38.9334910  76.6122170  42.7918800  38.0451610  76.9538140  42.6898680
  39.2176100  76.4122490  41.8999630  36.8967920  79.2127820  48.6758500
  37.4684030  78.4450020  48.6762140  36.8969460  79.5116580  47.7665110
  45.9486120  84.0157660  48.1370810  45.8794400  83.0747600  47.9759940
  46.7105980  84.1059070  48.7093380  38.1392790  74.6212180  50.4627430
  37.9595630  73.7237930  50.7430190  37.7372870  75.1684050  51.1374380
  46.9791290  76.8228040  48.3639740  47.3556110  75.9499920  48.2513410
  46.8810800  77.1586740  47.4730180  41.1096300  75.1953670  43.8257180
  41.2163050  76.0957400  44.1325940  40.1988660  75.1471640  43.5351830
  50.7615410  74.3178480  45.2968080  51.5825030  73.8275050  45.3393560
  50.7949490  74.9076140  46.0499920  38.7579460  77.1172680  49.0709770
  39.4389570  77.3811050  49.6897170  38.4427510  76.2773550  49.4047780
  42.9504030  78.1640040  48.1582360  43.4582250  78.6621010  48.7987380
  43.4817270  77.3875240  47.9821720  55.0514960  76.3345230  51.8611710
  54.3467130  76.7226940  51.3426820  55.3172880  77.0295520  52.4632640
  41.2340130  72.8038600  52.4245780  41.2358570  73.3210990  51.6191680
  40.4044440  72.3268780  52.4015710  47.6211220  82.9157910  43.9235680
  47.0028490  83.3807360  43.3598400  48.1334470  83.6085390  44.3405190
  42.4842980  82.4433780  50.6019280  42.1512360  83.0702700  51.2440350
  42.6609660  82.9695660  49.8220950  50.9976890  76.2578860  48.0695620
  50.2932460  76.5463750  48.6498730  51.3589050  77.0678970  47.7095180
  40.9155460  74.5148560  50.4316230  41.2572270  75.3590610  50.1370100
  39.9771270  74.6632300  50.5481570  54.0663810  75.7033650  48.4604830
  53.1188720  75.7372630  48.5920260  54.3913800  76.5172600  48.8454190
  44.5983350  72.0030830  46.7560820  44.9058330  71.4477720  46.0396320
  43.6684050  72.1375290  46.5733810  49.5483850  82.6227960  50.3750890
  49.9652640  82.4088070  49.5404350  50.2723670  82.8800750  50.9459510
  46.9864110  80.0679660  43.4920940  46.0593390  80.0017040  43.7209410
  47.1388930  81.0059790  43.3776180  46.9733190  76.3396660  40.4888100
  46.0336860  76.5010620  40.5740560  47.2916450  77.0582340  39.9424090
  53.4945950  81.0215180  50.4667130  52.6664580  81.0908270  49.9917260
  54.0896430  81.6069490  49.9982960  51.0161400  81.6299960  43.9956190
  50.3973820  81.2919510  43.3482490  50.9985850  80.9859720  44.7035380
  50.4587960  77.8084500  51.4122000  50.0459140  78.6338210  51.6661990
  49.7263910  77.2229540  51.2198360  42.5920750  80.5944400  46.2740670
  42.1877750  79.8821650  45.7786570  42.6783870  80.2497640  47.1628710
  41.3049370  77.3687610  50.0539710  41.8563960  77.4782950  49.2792960
  41.8192880  77.7425210  50.7694940  49.1926100  80.8686770  41.0028940
  49.6319380  80.0309200  40.8566760  49.9054520  81.5016170  41.0893080
  40.9792100  80.8906970  53.6645050  40.8399870  81.7629770  54.0332450
  40.0973460  80.5479780  53.5192990  52.7743240  72.1229580  39.3169980
  52.4615900  72.2156410  40.2169050  53.5355710  72.7010610  39.2667410
  39.2925380  79.4889380  43.7747320  39.1722980  80.2151470  43.1628590
  38.9826270  78.7192290  43.2975230  36.9310750  82.6604520  49.5815960
  37.0091170  82.7953290  48.6371680  37.5452430  81.9520410  49.7744080
  53.9844530  76.8601080  55.2944120  53.3688800  77.3680750  54.7659580
  53.6640950  75.9599410  55.2370060  36.9870270  83.7018690  52.1210420
  37.1501310  83.2324050  51.3029790  37.4522720  83.1942250  52.7859260
  41.7589040  72.8324450  47.1570990  41.3157190  73.6133990  46.8255510
  42.3174030  73.1554340  47.8641930  46.0458850  75.6992970  52.7606310
  45.5838220  75.9075990  53.5726250  45.6436960  74.8852320  52.4576980
  51.0463360  76.9201920  53.8902970  50.1956950  76.6207670  54.2112040
  50.8865150  77.1643930  52.9786790  48.1413070  78.4203670  55.9901760
  48.4666480  77.5867420  55.6503990  48.9293400  78.9432190  56.1380090
  44.8747860  72.4535150  42.0376820  44.2502040  72.4495020  42.7630130
  44.7877980  71.5866110  41.6412790  43.7964940  73.3771780  49.0160590
  44.0937270  74.2834610  48.9352610  44.3450500  72.8890560  48.4020160
  41.5503260  77.9558020  44.8852240  41.3244180  77.7395190  45.7898860
  40.7695790  78.3886480  44.5398210  48.7801020  77.9621390  43.4842890
  48.1809910  78.6857190  43.3006510  49.3280630  77.8998170  42.7019340
  43.9902470  78.8543600  55.5512510  43.8946070  77.9138330  55.4012910
  44.8334450  79.0758670  55.1560580  47.3865890  76.5984930  45.5146170
  47.7795460  76.9157130  44.7014860  47.7482740  75.7196810  45.6290690
  39.1213010  75.2657270  53.7046290  38.7276400  76.1132480  53.9119070
  38.4331410  74.6283640  53.8954930  45.6958060  75.3492240  56.7743030
  45.0056380  75.1564440  57.4089120  46.4390360  75.6326880  57.3067330
  36.4230060  73.1885730  47.7376370  36.1343110  73.7588590  48.4501350
  37.1675820  72.7090180  48.1007600  36.6100290  77.1305850  38.9479090
  36.5274960  78.0736610  39.0894080  36.2583350  76.9880760  38.0691440
  47.9721030  79.1890680  49.6096950  47.2402150  79.6977490  49.9587050
  47.5745370  78.3720660  49.3085730  44.4098420  75.8644880  48.0149440
  44.4134480  75.4234830  47.1653980  45.3049540  76.1862210  48.1221260
  40.2600800  75.7471370  46.9743650  39.9200850  76.2246600  47.7310700
  39.4978120  75.2936490  46.6144750  44.4718570  76.8656960  41.0056200
  44.5931390  76.8243440  41.9542020  44.0867080  77.7281110  40.8502930
  48.4346940  74.6424360  49.0219890  48.4519680  75.0933010  49.8661740
  48.1862520  73.7430000  49.2353330  43.4840070  79.1758100  40.4039500
  42.9156970  78.7276350  39.7775410  44.1929070  79.5350880  39.8704650
  38.5609250  83.0770120  54.2806230  38.1764040  82.4363790  54.8789190
  38.8721440  83.7806240  54.8500960  44.7106390  79.9246660  49.7614850
  45.0776520  79.4505230  50.5076190  44.5211450  80.7988230  50.1023190
  37.5746880  74.6690350  45.8908320  37.2893800  74.3046020  46.7286940
  37.5125740  73.9370810  45.2771460  42.5005760  78.9655300  52.0799060
  42.1962830  79.8447280  52.3049420  43.4552220  79.0255090  52.1156500
  41.0287550  83.1716290  42.6765910  40.2549810  82.6313910  42.5164630
  41.7582180  82.6522900  42.3383670  51.7875530  82.1681650  48.4692300
  52.5074650  82.6636940  48.0788410  51.5857350  81.4899540  47.8246170
  47.2485470  73.5619610  42.6121690  46.4350080  73.0632780  42.5367000
  47.0547420  74.4017860  42.1958040  47.1694330  82.2390710  54.3561300
  47.1031640  81.3186380  54.1018890  46.5399470  82.3366150  55.0705940
  49.9633860  77.9339260  40.9083850  50.8513480  78.2456490  40.7335190
  49.9338950  77.0611510  40.5164430  41.0724950  82.8396670  46.3144720
  41.5903620  82.0364930  46.2601610  40.6208970  82.7775810  47.1561550
  38.5569490  79.8058040  53.2270420  38.1984430  80.4711890  53.8143760
  38.2624050  78.9741590  53.5983040  41.7582610  80.2642280  56.1109970
  41.4582750  80.4099460  55.2137790  42.5293850  79.7047570  56.0183360
  52.2348130  79.2451100  40.3763710  52.1511850  79.6765320  39.5260150
  52.9542320  79.7049450  40.8090530  53.3122270  81.7018620  53.4533680
  52.5870460  82.2947400  53.2563070  53.8397730  81.6942160  52.6547050
  48.8421860  83.4278790  46.9517530  49.1945680  82.8306920  46.2918900
  47.9584190  83.1023020  47.1225780  37.0677540  79.8049300  39.8505020
  37.9372390  80.0874100  40.1340940  36.5767860  80.6185170  39.7353830
  44.2312350  81.1922510  43.9713300  44.6875130  82.0027760  44.1973490
  43.8800560  80.8745650  44.8031790  40.1324130  71.5360160  44.4435820
  40.0038760  71.5278060  45.3920740  39.3086150  71.8743250  44.0926830
  37.1318060  73.2951280  53.9042520  36.4176580  73.4948200  54.5095130
  37.5513100  72.5190850  54.2757320  51.2349010  82.9081760  41.3036350
  50.9470710  83.3694450  42.0914230  52.0301180  82.4479530  41.5720570
  39.0524050  81.6222770  41.9787080  38.4452000  82.3621670  41.9882380
  39.5273400  81.7122130  41.1525280  48.6256840  75.7873590  51.6543970
  48.9937660  74.9668800  51.9823540  47.7655040  75.8475480  52.0699620
  51.9918870  74.7430530  42.4631530  51.3632030  74.8476200  41.7489760
  51.4970790  74.9627310  43.2525410  43.9602900  77.0216480  43.8789410
  43.2519050  77.4902820  44.3203020  44.2447380  76.3638490  44.5134600
  45.5858830  78.4413180  51.8781940  46.0844080  78.9159000  52.5433790
  45.7281780  77.5176700  52.0851970  47.9918330  73.7467140  45.3185200
  47.8686110  73.7653270  44.3694710  48.9402890  73.7946080  45.4383600
  42.1637920  75.3301560  41.2540120  43.0128450  75.7671710  41.1880310
  41.7969190  75.6421820  42.0812180  52.7925690  74.6581140  52.7210330
  52.2899290  75.3986540  53.0604140  53.6082350  75.0465140  52.4047120
  51.0847700  79.9014320  46.1671690  50.1437840  79.9164550  46.3419380
  51.3991770  79.1150280  46.6131990  41.0629340  81.5833920  39.7275650
  41.8292610  81.4715280  40.2901080  41.1404030  80.8871890  39.0752420
  39.7576100  79.0158990  40.4108540  39.8379690  78.0686500  40.5225940
  40.6495850  79.3465870  40.5169200  37.2846900  80.8373910  55.6464710
  37.7885920  80.2581190  56.2180940  36.5454320  81.1214140  56.1841080
  44.1870520  83.5588100  39.2011000  44.0821160  82.9440450  39.9272380
  44.0194740  83.0353990  38.4174010  44.3384840  82.2444900  55.1800230
  43.5730510  82.8129900  55.0954900  44.5200800  81.9521110  54.2868460
  47.4273250  82.6208130  39.8052990  46.8783350  83.0677430  40.4495730
  48.0492510  82.1157380  40.3290660  39.3169980  78.9803500  56.5414780
  39.3575320  78.6817370  57.4500010  40.1715480  79.3811110  56.3822300
  43.0948370  81.5799050  41.7018290  43.5164790  81.4138920  42.5449680
  43.2199210  80.7699280  41.2073430  41.2575790  77.5595600  54.5089270
  40.7272250  77.0686550  53.8812610  41.9263860  77.9879800  53.9747200
  45.6076010  80.6036660  38.9495390  46.1281670  79.8885680  38.5836540
  46.2544410  81.2422530  39.2495900  50.1553850  82.0265060  54.2730460
  50.5694870  82.1810140  55.1220880  49.2204850  82.1520280  54.4356240
  50.6276020  79.3661220  56.2769610  51.2096790  78.6113540  56.1890090
  50.8037790  79.8968660  55.5001090  41.7448090  74.5257970  54.5886560
  41.6504960  73.9078720  53.8637430  41.1645480  75.2524260  54.3616470
  44.5109530  73.0831210  51.6213950  44.0626830  73.1055470  50.7759500
  43.8774730  72.6850230  52.2184250  44.9169080  81.9785540  52.2426390
  45.3357190  82.8218270  52.0702630  43.9977710  82.1157580  52.0133170
  47.2532980  79.7101720  53.6264230  47.3729190  79.1142860  54.3659070
  48.1126980  79.7471410  53.2065530  49.5920880  80.2638910  52.2026740
  49.0656100  80.7881530  51.5991880  49.9352220  80.8966300  52.8336470
  41.9907270  77.6532280  38.6476450  41.7896330  76.7899640  39.0089790
  41.8199320  77.5665640  37.7098050  44.0201750  76.2523070  54.8840050
  44.6101440  75.9438920  55.5717870  43.2021990  75.7802820  55.0399950
  48.8395180  75.8688880  55.1173070  48.1510700  75.2070420  55.0523060
  49.5601200  75.4227150  55.5621530  49.4695580  72.4640510  41.1763330
  49.7497870  71.6208410  41.5322750  48.6961310  72.6963620  41.6902080
  40.7890070  74.7532900  38.6354330  41.0915970  74.7600330  37.7273480
  41.5284660  74.4030760  39.1321990  44.0075000  73.6967520  39.6210530
  43.6597000  73.0191510  39.0412980  44.2087770  73.2357030  40.4353920
  53.8476300  81.7017240  41.7867240  54.6095210  82.2713890  41.8926930
  53.8630670  81.1344440  42.5575550  37.3480640  80.2255170  46.0174900
  36.6929480  79.9566810  45.3734600  38.1858590  80.1159650  45.5676880
  54.8536270  82.5567340  46.6309170  55.2245100  81.7734660  46.2245140
  55.4938200  83.2456440  46.4526470  53.8995470  81.9951610  38.9439760
  54.1744310  82.9030490  38.8158980  53.7106210  81.9314140  39.8801750
  50.2971080  75.0196460  40.2393390  50.7155960  74.8327440  39.3990050
  49.9907140  74.1675510  40.5496320  53.7960810  79.9320600  43.9369190
  53.4204410  79.1648530  43.5050480  53.0663930  80.3143300  44.4244120
  38.3856570  80.6107740  50.5578240  38.7529610  80.5235140  51.4374260
  37.8167390  79.8474290  50.4585100  53.1860430  79.0792120  53.5708710
  52.9546520  78.8504870  52.6706660  53.4464980  79.9991670  53.5253600
  37.9372570  77.5216830  54.4636660  37.0428620  77.4883590  54.8030370
  38.4770120  77.7203620  55.2287910  36.5618720  77.4354100  41.9600230
  35.6582800  77.6984300  41.7851890  37.0459340  77.7065270  41.1800190
  53.0711770  78.1578090  47.2376430  53.5949250  77.6640740  46.6066600
  53.6571190  78.2928450  47.9824000  53.2501490  78.2417960  50.7595980
  52.3004200  78.2081500  50.8740970  53.4314500  79.1518070  50.5245750
  39.1045930  76.4919640  39.8694610  39.8137630  76.0702860  39.3841890
  38.3885870  76.5594870  39.2377960  38.7520090  72.5458970  38.9097260
  39.4748220  73.0867910  39.2278480  39.0244610  72.2722390  38.0338800
  52.5611740  77.4151440  43.1768840  53.0570860  77.1822310  43.9617720
  52.3627810  76.5763280  42.7606480  38.4412280  71.7965160  48.8119880
  39.0888470  71.2462540  48.3715040  38.8614120  72.0508310  49.6335690
  53.9898900  76.0512390  45.7106520  53.8798180  75.8968430  46.6488790
  54.7506490  75.5233330  45.4681930  54.8789170  73.8820310  38.9512660
  55.8038480  73.7501490  38.7430950  54.8564960  73.9613130  39.9049110
  54.9527660  74.6530970  41.5769370  54.1579160  74.5876090  42.1062280
  55.1570940  75.5881610  41.5654720  38.1944280  71.9520830  51.5545200
  37.8459100  72.4084650  52.3203380  37.8631980  71.0577960  51.6367630
  45.7069100  73.1432710  55.0764620  45.6457990  73.7354540  55.8260030
  46.6469480  73.0358670  54.9314880  38.8664920  71.4797030  54.8295970
  39.4147910  71.2985080  54.0662080  38.9320230  70.6891140  55.3652280
  49.0851700  71.3634910  51.0426200  48.2111540  71.6970020  50.8399130
  48.9762450  70.8908090  51.8678070  49.9923680  73.5705780  52.4267920
  49.6637040  72.7557540  52.0469650  50.9405980  73.5275590  52.3033610
  46.8326520  72.2804750  49.9819110  46.0498310  72.7550250  50.2615870
  46.5389450  71.3759580  49.8732290  51.3847590  72.9827850  48.0268200
  51.8255680  72.9272950  47.1789800  51.1155180  73.8985860  48.0978380
  53.2486160  72.6143090  46.0377020  53.1874560  71.6704310  45.8908040
  54.0278190  72.7223180  46.5830480  38.1766930  72.5852230  42.5032830
  38.9346290  72.6981110  41.9296860  37.7144100  73.4221430  42.4576260
  44.7180740  74.6991500  45.4935140  43.9055250  74.3248390  45.1531020
  45.2222380  73.9436580  45.7956330  49.2205720  71.3633950  46.7318210
  49.8235090  71.9354160  47.2066730  48.4798710  71.9273390  46.5092110
  52.3640320  71.7655510  42.0058490  52.5590950  72.6638960  42.2725920
  51.5770190  71.5342590  42.4991440  40.5492080  73.1116280  41.0434800
  41.0784840  72.3246080  40.9142750  41.1820400  73.7907470  41.2770330
  42.7429920  72.8491420  44.0980190  42.1132660  72.1478730  44.2650320
  42.2035060  73.6095550  43.8813350  42.8685480  72.1275400  56.5332680
  42.5869750  72.6309000  55.7693500  43.2505180  71.3297150  56.1674810
  48.3759090  79.5621450  27.4747890  48.2953140  78.6476060  27.2039600
  47.9623510  80.0588520  26.7687600  46.5077130  81.3400470  29.3557160
  45.7319230  80.8600910  29.6455730  47.1590060  80.6606120  29.1813320
  40.5242960  81.6520280  30.2332920  39.6927840  81.3968990  30.6329430
  41.1323940  81.7231050  30.9690840  38.9334910  76.6122170  24.0175310
  38.0451610  76.9538140  23.9155190  39.2176100  76.4122490  23.1256140
  36.8967920  79.2127820  29.9015010  37.4684030  78.4450020  29.9018650
  36.8969460  79.5116580  28.9921620  45.9486120  84.0157660  29.3627320
  45.8794400  83.0747600  29.2016450  46.7105980  84.1059070  29.9349890
  38.1392790  74.6212180  31.6883940  37.9595630  73.7237930  31.9686700
  37.7372870  75.1684050  32.3630890  46.9791290  76.8228040  29.5896250
  47.3556110  75.9499920  29.4769920  46.8810800  77.1586740  28.6986690
  41.1096300  75.1953670  25.0513690  41.2163050  76.0957400  25.3582450
  40.1988660  75.1471640  24.7608340  50.7615410  74.3178480  26.5224590
  51.5825030  73.8275050  26.5650070  50.7949490  74.9076140  27.2756430
  38.7579460  77.1172680  30.2966280  39.4389570  77.3811050  30.9153680
  38.4427510  76.2773550  30.6304290  42.9504030  78.1640040  29.3838870
  43.4582250  78.6621010  30.0243890  43.4817270  77.3875240  29.2078230
  55.0514960  76.3345230  33.0868220  54.3467130  76.7226940  32.5683330
  55.3172880  77.0295520  33.6889150  41.2340130  72.8038600  33.6502290
  41.2358570  73.3210990  32.8448190  40.4044440  72.3268780  33.6272220
  47.6211220  82.9157910  25.1492190  47.0028490  83.3807360  24.5854910
  48.1334470  83.6085390  25.5661700  42.4842980  82.4433780  31.8275790
  42.1512360  83.0702700  32.4696860  42.6609660  82.9695660  31.0477460
  50.9976890  76.2578860  29.2952130  50.2932460  76.5463750  29.8755240
  51.3589050  77.0678970  28.9351690  40.9155460  74.5148560  31.6572740
  41.2572270  75.3590610  31.3626610  39.9771270  74.6632300  31.7738080
  54.0663810  75.7033650  29.6861340  53.1188720  75.7372630  29.8176770
  54.3913800  76.5172600  30.0710700  44.5983350  72.0030830  27.9817330
  44.9058330  71.4477720  27.2652830  43.6684050  72.1375290  27.7990320
  49.5483850  82.6227960  31.6007400  49.9652640  82.4088070  30.7660860
  50.2723670  82.8800750  32.1716020  46.9864110  80.0679660  24.7177450
  46.0593390  80.0017040  24.9465920  47.1388930  81.0059790  24.6032690
  46.9733190  76.3396660  21.7144610  46.0336860  76.5010620  21.7997070
  47.2916450  77.0582340  21.1680600  53.4945950  81.0215180  31.6923640
  52.6664580  81.0908270  31.2173770  54.0896430  81.6069490  31.2239470
  51.0161400  81.6299960  25.2212700  50.3973820  81.2919510  24.5739000
  50.9985850  80.9859720  25.9291890  50.4587960  77.8084500  32.6378510
  50.0459140  78.6338210  32.8918500  49.7263910  77.2229540  32.4454870
  42.5920750  80.5944400  27.4997180  42.1877750  79.8821650  27.0043080
  42.6783870  80.2497640  28.3885220  41.3049370  77.3687610  31.2796220
  41.8563960  77.4782950  30.5049470  41.8192880  77.7425210  31.9951450
  49.1926100  80.8686770  22.2285450  49.6319380  80.0309200  22.0823270
  49.9054520  81.5016170  22.3149590  40.9792100  80.8906970  34.8901560
  40.8399870  81.7629770  35.2588960  40.0973460  80.5479780  34.7449500
  52.7743240  72.1229580  20.5426490  52.4615900  72.2156410  21.4425560
  53.5355710  72.7010610  20.4923920  39.2925380  79.4889380  25.0003830
  39.1722980  80.2151470  24.3885100  38.9826270  78.7192290  24.5231740
  36.9310750  82.6604520  30.8072470  37.0091170  82.7953290  29.8628190
  37.5452430  81.9520410  31.0000590  53.9844530  76.8601080  36.5200630
  53.3688800  77.3680750  35.9916090  53.6640950  75.9599410  36.4626570
  36.9870270  83.7018690  33.3466930  37.1501310  83.2324050  32.5286300
  37.4522720  83.1942250  34.0115770  41.7589040  72.8324450  28.3827500
  41.3157190  73.6133990  28.0512020  42.3174030  73.1554340  29.0898440
  46.0458850  75.6992970  33.9862820  45.5838220  75.9075990  34.7982760
  45.6436960  74.8852320  33.6833490  51.0463360  76.9201920  35.1159480
  50.1956950  76.6207670  35.4368550  50.8865150  77.1643930  34.2043300
  48.1413070  78.4203670  37.2158270  48.4666480  77.5867420  36.8760500
  48.9293400  78.9432190  37.3636600  44.8747860  72.4535150  23.2633330
  44.2502040  72.4495020  23.9886640  44.7877980  71.5866110  22.8669300
  43.7964940  73.3771780  30.2417100  44.0937270  74.2834610  30.1609120
  44.3450500  72.8890560  29.6276670  41.5503260  77.9558020  26.1108750
  41.3244180  77.7395190  27.0155370  40.7695790  78.3886480  25.7654720
  48.7801020  77.9621390  24.7099400  48.1809910  78.6857190  24.5263020
  49.3280630  77.8998170  23.9275850  43.9902470  78.8543600  36.7769020
  43.8946070  77.9138330  36.6269420  44.8334450  79.0758670  36.3817090
  47.3865890  76.5984930  26.7402680  47.7795460  76.9157130  25.9271370
  47.7482740  75.7196810  26.8547200  39.1213010  75.2657270  34.9302800
  38.7276400  76.1132480  35.1375580  38.4331410  74.6283640  35.1211440
  45.6958060  75.3492240  37.9999540  45.0056380  75.1564440  38.6345630
  46.4390360  75.6326880  38.5323840  36.4230060  73.1885730  28.9632880
  36.1343110  73.7588590  29.6757860  37.1675820  72.7090180  29.3264110
  36.6100290  77.1305850  20.1735600  36.5274960  78.0736610  20.3150590
  36.2583350  76.9880760  19.2947950  47.9721030  79.1890680  30.8353460
  47.2402150  79.6977490  31.1843560  47.5745370  78.3720660  30.5342240
  44.4098420  75.8644880  29.2405950  44.4134480  75.4234830  28.3910490
  45.3049540  76.1862210  29.3477770  40.2600800  75.7471370  28.2000160
  39.9200850  76.2246600  28.9567210  39.4978120  75.2936490  27.8401260
  44.4718570  76.8656960  22.2312710  44.5931390  76.8243440  23.1798530
  44.0867080  77.7281110  22.0759440  48.4346940  74.6424360  30.2476400
  48.4519680  75.0933010  31.0918250  48.1862520  73.7430000  30.4609840
  43.4840070  79.1758100  21.6296010  42.9156970  78.7276350  21.0031920
  44.1929070  79.5350880  21.0961160  51.8617690  72.0556540  36.0862780
  52.1863460  71.3246200  36.6120760  51.8974200  71.7370180  35.1843770
  38.5609250  83.0770120  35.5062740  38.1764040  82.4363790  36.1045700
  38.8721440  83.7806240  36.0757470  44.7106390  79.9246660  30.9871360
  45.0776520  79.4505230  31.7332700  44.5211450  80.7988230  31.3279700
  37.5746880  74.6690350  27.1164830  37.2893800  74.3046020  27.9543450
  37.5125740  73.9370810  26.5027970  42.5005760  78.9655300  33.3055570
  42.1962830  79.8447280  33.5305930  43.4552220  79.0255090  33.3413010
  41.0287550  83.1716290  23.9022420  40.2549810  82.6313910  23.7421140
  41.7582180  82.6522900  23.5640180  51.7875530  82.1681650  29.6948810
  52.5074650  82.6636940  29.3044920  51.5857350  81.4899540  29.0502680
  47.2485470  73.5619610  23.8378200  46.4350080  73.0632780  23.7623510
  47.0547420  74.4017860  23.4214550  47.1694330  82.2390710  35.5817810
  47.1031640  81.3186380  35.3275400  46.5399470  82.3366150  36.2962450
  49.9633860  77.9339260  22.1340360  50.8513480  78.2456490  21.9591700
  49.9338950  77.0611510  21.7420940  41.0724950  82.8396670  27.5401230
  41.5903620  82.0364930  27.4858120  40.6208970  82.7775810  28.3818060
  38.5569490  79.8058040  34.4526930  38.1984430  80.4711890  35.0400270
  38.2624050  78.9741590  34.8239550  41.7582610  80.2642280  37.3366480
  41.4582750  80.4099460  36.4394300  42.5293850  79.7047570  37.2439870
  52.2348130  79.2451100  21.6020220  52.1511850  79.6765320  20.7516660
  52.9542320  79.7049450  22.0347040  53.3122270  81.7018620  34.6790190
  52.5870460  82.2947400  34.4819580  53.8397730  81.6942160  33.8803560
  48.8421860  83.4278790  28.1774040  49.1945680  82.8306920  27.5175410
  47.9584190  83.1023020  28.3482290  37.0677540  79.8049300  21.0761530
  37.9372390  80.0874100  21.3597450  36.5767860  80.6185170  20.9610340
  44.2312350  81.1922510  25.1969810  44.6875130  82.0027760  25.4230000
  43.8800560  80.8745650  26.0288300  40.1324130  71.5360160  25.6692330
  40.0038760  71.5278060  26.6177250  39.3086150  71.8743250  25.3183340
  37.1318060  73.2951280  35.1299030  36.4176580  73.4948200  35.7351640
  37.5513100  72.5190850  35.5013830  51.2349010  82.9081760  22.5292860
  50.9470710  83.3694450  23.3170740  52.0301180  82.4479530  22.7977080
  39.0524050  81.6222770  23.2043590  38.4452000  82.3621670  23.2138890
  39.5273400  81.7122130  22.3781790  48.6256840  75.7873590  32.8800480
  48.9937660  74.9668800  33.2080050  47.7655040  75.8475480  33.2956130
  51.9918870  74.7430530  23.6888040  51.3632030  74.8476200  22.9746270
  51.4970790  74.9627310  24.4781920  43.9602900  77.0216480  25.1045920
  43.2519050  77.4902820  25.5459530  44.2447380  76.3638490  25.7391110
  45.5858830  78.4413180  33.1038450  46.0844080  78.9159000  33.7690300
  45.7281780  77.5176700  33.3108480  47.9918330  73.7467140  26.5441710
  47.8686110  73.7653270  25.5951220  48.9402890  73.7946080  26.6640110
  42.1637920  75.3301560  22.4796630  43.0128450  75.7671710  22.4136820
  41.7969190  75.6421820  23.3068690  52.7925690  74.6581140  33.9466840
  52.2899290  75.3986540  34.2860650  53.6082350  75.0465140  33.6303630
  51.0847700  79.9014320  27.3928200  50.1437840  79.9164550  27.5675890
  51.3991770  79.1150280  27.8388500  41.0629340  81.5833920  20.9532160
  41.8292610  81.4715280  21.5157590  41.1404030  80.8871890  20.3008930
  39.7576100  79.0158990  21.6365050  39.8379690  78.0686500  21.7482450
  40.6495850  79.3465870  21.7425710  37.2846900  80.8373910  36.8721220
  37.7885920  80.2581190  37.4437450  36.5454320  81.1214140  37.4097590
  44.1870520  83.5588100  20.4267510  44.0821160  82.9440450  21.1528890
  44.0194740  83.0353990  19.6430520  44.3384840  82.2444900  36.4056740
  43.5730510  82.8129900  36.3211410  44.5200800  81.9521110  35.5124970
  47.4273250  82.6208130  21.0309500  46.8783350  83.0677430  21.6752240
  48.0492510  82.1157380  21.5547170  39.3169980  78.9803500  37.7671290
  39.3575320  78.6817370  38.6756520  40.1715480  79.3811110  37.6078810
  43.0948370  81.5799050  22.9274800  43.5164790  81.4138920  23.7706190
  43.2199210  80.7699280  22.4329940  41.2575790  77.5595600  35.7345780
  40.7272250  77.0686550  35.1069120  41.9263860  77.9879800  35.2003710
  45.6076010  80.6036660  20.1751900  46.1281670  79.8885680  19.8093050
  46.2544410  81.2422530  20.4752410  50.1553850  82.0265060  35.4986970
  50.5694870  82.1810140  36.3477390  49.2204850  82.1520280  35.6612750
  50.6276020  79.3661220  37.5026120  51.2096790  78.6113540  37.4146600
  50.8037790  79.8968660  36.7257600  41.7448090  74.5257970  35.8143070
  41.6504960  73.9078720  35.0893940  41.1645480  75.2524260  35.5872980
  44.5109530  73.0831210  32.8470460  44.0626830  73.1055470  32.0016010
  43.8774730  72.6850230  33.4440760  44.9169080  81.9785540  33.4682900
  45.3357190  82.8218270  33.2959140  43.9977710  82.1157580  33.2389680
  47.2532980  79.7101720  34.8520740  47.3729190  79.1142860  35.5915580
  48.1126980  79.7471410  34.4322040  49.5920880  80.2638910  33.4283250
  49.0656100  80.7881530  32.8248390  49.9352220  80.8966300  34.0592980
  41.9907270  77.6532280  19.8732960  41.7896330  76.7899640  20.2346300
  41.8199320  77.5665640  18.9354560  44.0201750  76.2523070  36.1096560
  44.6101440  75.9438920  36.7974380  43.2021990  75.7802820  36.2656460
  48.8395180  75.8688880  36.3429580  48.1510700  75.2070420  36.2779570
  49.5601200  75.4227150  36.7878040  49.4695580  72.4640510  22.4019840
  49.7497870  71.6208410  22.7579260  48.6961310  72.6963620  22.9158590
  40.7890070  74.7532900  19.8610840  41.0915970  74.7600330  18.9529990
  41.5284660  74.4030760  20.3578500  44.0075000  73.6967520  20.8467040
  43.6597000  73.0191510  20.2669490  44.2087770  73.2357030  21.6610430
  53.8476300  81.7017240  23.0123750  54.6095210  82.2713890  23.1183440
  53.8630670  81.1344440  23.7832060  37.3480640  80.2255170  27.2431410
  36.6929480  79.9566810  26.5991110  38.1858590  80.1159650  26.7933390
  54.8536270  82.5567340  27.8565680  55.2245100  81.7734660  27.4501650
  55.4938200  83.2456440  27.6782980  53.8995470  81.9951610  20.1696270
  54.1744310  82.9030490  20.0415490  53.7106210  81.9314140  21.1058260
  50.2971080  75.0196460  21.4649900  50.7155960  74.8327440  20.6246560
  49.9907140  74.1675510  21.7752830  53.7960810  79.9320600  25.1625700
  53.4204410  79.1648530  24.7306990  53.0663930  80.3143300  25.6500630
  38.3856570  80.6107740  31.7834750  38.7529610  80.5235140  32.6630770
  37.8167390  79.8474290  31.6841610  53.1860430  79.0792120  34.7965220
  52.9546520  78.8504870  33.8963170  53.4464980  79.9991670  34.7510110
  37.9372570  77.5216830  35.6893170  37.0428620  77.4883590  36.0286880
  38.4770120  77.7203620  36.4544420  51.6248500  74.3048550  37.5744920
  52.5018680  74.3131950  37.9578920  51.6369340  73.5679390  36.9637270
  36.5618720  77.4354100  23.1856740  35.6582800  77.6984300  23.0108400
  37.0459340  77.7065270  22.4056700  53.0711770  78.1578090  28.4632940
  53.5949250  77.6640740  27.8323110  53.6571190  78.2928450  29.2080510
  53.2501490  78.2417960  31.9852490  52.3004200  78.2081500  32.0997480
  53.4314500  79.1518070  31.7502260  39.1045930  76.4919640  21.0951120
  39.8137630  76.0702860  20.6098400  38.3885870  76.5594870  20.4634470
  38.7520090  72.5458970  20.1353770  39.4748220  73.0867910  20.4534990
  39.0244610  72.2722390  19.2595310  52.5611740  77.4151440  24.4025350
  53.0570860  77.1822310  25.1874230  52.3627810  76.5763280  23.9862990
  38.4412280  71.7965160  30.0376390  39.0888470  71.2462540  29.5971550
  38.8614120  72.0508310  30.8592200  53.9898900  76.0512390  26.9363030
  53.8798180  75.8968430  27.8745300  54.7506490  75.5233330  26.6938440
  52.3364620  71.9906520  33.3946030  52.9736840  72.6040660  33.7605220
  52.4839510  72.0267180  32.4495260  54.8789170  73.8820310  20.1769170
  55.8038480  73.7501490  19.9687460  54.8564960  73.9613130  21.1305620
  54.9527660  74.6530970  22.8025880  54.1579160  74.5876090  23.3318790
  55.1570940  75.5881610  22.7911230  38.1944280  71.9520830  32.7801710
  37.8459100  72.4084650  33.5459890  37.8631980  71.0577960  32.8624140
  45.7069100  73.1432710  36.3021130  45.6457990  73.7354540  37.0516540
  46.6469480  73.0358670  36.1571390  48.3443660  72.8002770  35.9413420
  48.9584070  73.1182060  35.2794500  48.8893220  72.3151360  36.5609280
  38.8664920  71.4797030  36.0552480  39.4147910  71.2985080  35.2918590
  38.9320230  70.6891140  36.5908790  49.0851700  71.3634910  32.2682710
  48.2111540  71.6970020  32.0655640  48.9762450  70.8908090  33.0934580
  49.9923680  73.5705780  33.6524430  49.6637040  72.7557540  33.2726160
  50.9405980  73.5275590  33.5290120  51.3847590  72.9827850  29.2524710
  51.8255680  72.9272950  28.4046310  51.1155180  73.8985860  29.3234890
  53.2486160  72.6143090  27.2633530  53.1874560  71.6704310  27.1164550
  54.0278190  72.7223180  27.8086990  38.1766930  72.5852230  23.7289340
  38.9346290  72.6981110  23.1553370  37.7144100  73.4221430  23.6832770
  44.7180740  74.6991500  26.7191650  43.9055250  74.3248390  26.3787530
  45.2222380  73.9436580  27.0212840  49.2205720  71.3633950  27.9574720
  49.8235090  71.9354160  28.4323240  48.4798710  71.9273390  27.7348620
  52.3640320  71.7655510  23.2315000  52.5590950  72.6638960  23.4982430
  51.5770190  71.5342590  23.7247950  40.5492080  73.1116280  22.2691310
  41.0784840  72.3246080  22.1399260  41.1820400  73.7907470  22.5026840
  42.7429920  72.8491420  25.3236700  42.1132660  72.1478730  25.4906830
  42.2035060  73.6095550  25.1069860  42.8685480  72.1275400  37.7589190
  42.5869750  72.6309000  36.9950010  43.2505180  71.3297150  37.3931320
  49.4700940  71.5428980  38.3369660  49.3566390  71.8623590  39.2321180
  50.2870680  71.9441490  38.0406940  48.3759090  79.5621450   8.7004400
  48.2953140  78.6476060   8.4296110  47.9623510  80.0588520   7.9944110
  46.5077130  81.3400470  10.5813670  45.7319230  80.8600910  10.8712240
  47.1590060  80.6606120  10.4069830  40.5242960  81.6520280  11.4589430
  39.6927840  81.3968990  11.8585940  41.1323940  81.7231050  12.1947350
  38.9334910  76.6122170   5.2431820  38.0451610  76.9538140   5.1411700
  39.2176100  76.4122490   4.3512650  36.8967920  79.2127820  11.1271520
  37.4684030  78.4450020  11.1275160  36.8969460  79.5116580  10.2178130
  45.9486120  84.0157660  10.5883830  45.8794400  83.0747600  10.4272960
  46.7105980  84.1059070  11.1606400  38.1392790  74.6212180  12.9140450
  37.9595630  73.7237930  13.1943210  37.7372870  75.1684050  13.5887400
  46.9791290  76.8228040  10.8152760  47.3556110  75.9499920  10.7026430
  46.8810800  77.1586740   9.9243200  41.1096300  75.1953670   6.2770200
  41.2163050  76.0957400   6.5838960  40.1988660  75.1471640   5.9864850
  50.7615410  74.3178480   7.7481100  51.5825030  73.8275050   7.7906580
  50.7949490  74.9076140   8.5012940  38.7579460  77.1172680  11.5222790
  39.4389570  77.3811050  12.1410190  38.4427510  76.2773550  11.8560800
  42.9504030  78.1640040  10.6095380  43.4582250  78.6621010  11.2500400
  43.4817270  77.3875240  10.4334740  55.0514960  76.3345230  14.3124730
  54.3467130  76.7226940  13.7939840  55.3172880  77.0295520  14.9145660
  41.2340130  72.8038600  14.8758800  41.2358570  73.3210990  14.0704700
  40.4044440  72.3268780  14.8528730  47.6211220  82.9157910   6.3748700
  47.0028490  83.3807360   5.8111420  48.1334470  83.6085390   6.7918210
  42.4842980  82.4433780  13.0532300  42.1512360  83.0702700  13.6953370
  42.6609660  82.9695660  12.2733970  50.9976890  76.2578860  10.5208640
  50.2932460  76.5463750  11.1011750  51.3589050  77.0678970  10.1608200
  40.9155460  74.5148560  12.8829250  41.2572270  75.3590610  12.5883120
  39.9771270  74.6632300  12.9994590  54.0663810  75.7033650  10.9117850
  53.1188720  75.7372630  11.0433280  54.3913800  76.5172600  11.2967210
  44.5983350  72.0030830   9.2073840  44.9058330  71.4477720   8.4909340
  43.6684050  72.1375290   9.0246830  49.5483850  82.6227960  12.8263910
  49.9652640  82.4088070  11.9917370  50.2723670  82.8800750  13.3972530
  46.9864110  80.0679660   5.9433960  46.0593390  80.0017040   6.1722430
  47.1388930  81.0059790   5.8289200  46.9733190  76.3396660   2.9401120
  46.0336860  76.5010620   3.0253580  47.2916450  77.0582340   2.3937110
  53.4945950  81.0215180  12.9180150  52.6664580  81.0908270  12.4430280
  54.0896430  81.6069490  12.4495980  51.0161400  81.6299960   6.4469210
  50.3973820  81.2919510   5.7995510  50.9985850  80.9859720   7.1548400
  50.4587960  77.8084500  13.8635020  50.0459140  78.6338210  14.1175010
  49.7263910  77.2229540  13.6711380  42.5920750  80.5944400   8.7253690
  42.1877750  79.8821650   8.2299590  42.6783870  80.2497640   9.6141730
  41.3049370  77.3687610  12.5052730  41.8563960  77.4782950  11.7305980
  41.8192880  77.7425210  13.2207960  49.1926100  80.8686770   3.4541960
  49.6319380  80.0309200   3.3079780  49.9054520  81.5016170   3.5406100
  40.9792100  80.8906970  16.1158070  40.8399870  81.7629770  16.4845470
  40.0973460  80.5479780  15.9706010  52.7743240  72.1229580   1.7683000
  52.4615900  72.2156410   2.6682070  53.5355710  72.7010610   1.7180430
  39.2925380  79.4889380   6.2260340  39.1722980  80.2151470   5.6141610
  38.9826270  78.7192290   5.7488250  36.9310750  82.6604520  12.0328980
  37.0091170  82.7953290  11.0884700  37.5452430  81.9520410  12.2257100
  53.9844530  76.8601080  17.7457140  53.3688800  77.3680750  17.2172600
  53.6640950  75.9599410  17.6883080  36.9870270  83.7018690  14.5723440
  37.1501310  83.2324050  13.7542810  37.4522720  83.1942250  15.2372280
  41.7589040  72.8324450   9.6084010  41.3157190  73.6133990   9.2768530
  42.3174030  73.1554340  10.3154950  46.0458850  75.6992970  15.2119330
  45.5838220  75.9075990  16.0239270  45.6436960  74.8852320  14.9090000
  51.0463360  76.9201920  16.3415990  50.1956950  76.6207670  16.6625060
  50.8865150  77.1643930  15.4299810  48.1413070  78.4203670  18.4414780
  48.4666480  77.5867420  18.1017010  48.9293400  78.9432190  18.5893110
  44.8747860  72.4535150   4.4889840  44.2502040  72.4495020   5.2143150
  44.7877980  71.5866110   4.0925810  43.7964940  73.3771780  11.4673610
  44.0937270  74.2834610  11.3865630  44.3450500  72.8890560  10.8533180
  41.5503260  77.9558020   7.3365260  41.3244180  77.7395190   8.2411880
  40.7695790  78.3886480   6.9911230  48.7801020  77.9621390   5.9355910
  48.1809910  78.6857190   5.7519530  49.3280630  77.8998170   5.1532360
  43.9902470  78.8543600  18.0025530  43.8946070  77.9138330  17.8525930
  44.8334450  79.0758670  17.6073600  47.3865890  76.5984930   7.9659190
  47.7795460  76.9157130   7.1527880  47.7482740  75.7196810   8.0803710
  39.1213010  75.2657270  16.1559310  38.7276400  76.1132480  16.3632090
  38.4331410  74.6283640  16.3467950  45.6958060  75.3492240  19.2256050
  45.0056380  75.1564440  19.8602140  46.4390360  75.6326880  19.7580350
  36.4230060  73.1885730  10.1889390  36.1343110  73.7588590  10.9014370
  37.1675820  72.7090180  10.5520620  47.9721030  79.1890680  12.0609970
  47.2402150  79.6977490  12.4100070  47.5745370  78.3720660  11.7598750
  44.4098420  75.8644880  10.4662460  44.4134480  75.4234830   9.6167000
  45.3049540  76.1862210  10.5734280  40.2600800  75.7471370   9.4256670
  39.9200850  76.2246600  10.1823720  39.4978120  75.2936490   9.0657770
  44.4718570  76.8656960   3.4569220  44.5931390  76.8243440   4.4055040
  44.0867080  77.7281110   3.3015950  48.4346940  74.6424360  11.4732910
  48.4519680  75.0933010  12.3174760  48.1862520  73.7430000  11.6866350
  43.4840070  79.1758100   2.8552520  42.9156970  78.7276350   2.2288430
  44.1929070  79.5350880   2.3217670  51.8617690  72.0556540  17.3119290
  52.1863460  71.3246200  17.8377270  51.8974200  71.7370180  16.4100280
  38.5609250  83.0770120  16.7319250  38.1764040  82.4363790  17.3302210
  38.8721440  83.7806240  17.3013980  44.7106390  79.9246660  12.2127870
  45.0776520  79.4505230  12.9589210  44.5211450  80.7988230  12.5536210
  37.5746880  74.6690350   8.3421340  37.2893800  74.3046020   9.1799960
  37.5125740  73.9370810   7.7284480  42.5005760  78.9655300  14.5312080
  42.1962830  79.8447280  14.7562440  43.4552220  79.0255090  14.5669520
  41.0287550  83.1716290   5.1278930  40.2549810  82.6313910   4.9677650
  41.7582180  82.6522900   4.7896690  51.7875530  82.1681650  10.9205320
  52.5074650  82.6636940  10.5301430  51.5857350  81.4899540  10.2759190
  47.2485470  73.5619610   5.0634710  46.4350080  73.0632780   4.9880020
  47.0547420  74.4017860   4.6471060  47.1694330  82.2390710  16.8074320
  47.1031640  81.3186380  16.5531910  46.5399470  82.3366150  17.5218960
  49.9633860  77.9339260   3.3596870  50.8513480  78.2456490   3.1848210
  49.9338950  77.0611510   2.9677450  41.0724950  82.8396670   8.7657740
  41.5903620  82.0364930   8.7114630  40.6208970  82.7775810   9.6074570
  38.5569490  79.8058040  15.6783440  38.1984430  80.4711890  16.2656780
  38.2624050  78.9741590  16.0496060  41.7582610  80.2642280  18.5622990
  41.4582750  80.4099460  17.6650810  42.5293850  79.7047570  18.4696380
  52.2348130  79.2451100   2.8276730  52.1511850  79.6765320   1.9773170
  52.9542320  79.7049450   3.2603550  53.3122270  81.7018620  15.9046700
  52.5870460  82.2947400  15.7076090  53.8397730  81.6942160  15.1060070
  48.8421860  83.4278790   9.4030550  49.1945680  82.8306920   8.7431920
  47.9584190  83.1023020   9.5738800  37.0677540  79.8049300   2.3018040
  37.9372390  80.0874100   2.5853960  36.5767860  80.6185170   2.1866850
  44.2312350  81.1922510   6.4226320  44.6875130  82.0027760   6.6486510
  43.8800560  80.8745650   7.2544810  40.1324130  71.5360160   6.8948840
  40.0038760  71.5278060   7.8433760  39.3086150  71.8743250   6.5439850
  37.1318060  73.2951280  16.3555540  36.4176580  73.4948200  16.9608150
  37.5513100  72.5190850  16.7270340  51.2349010  82.9081760   3.7549370
  50.9470710  83.3694450   4.5427250  52.0301180  82.4479530   4.0233590
  39.0524050  81.6222770   4.4300100  38.4452000  82.3621670   4.4395400
  39.5273400  81.7122130   3.6038300  48.6256840  75.7873590  14.1056990
  48.9937660  74.9668800  14.4336560  47.7655040  75.8475480  14.5212640
  51.9918870  74.7430530   4.9144550  51.3632030  74.8476200   4.2002780
  51.4970790  74.9627310   5.7038430  43.9602900  77.0216480   6.3302430
  43.2519050  77.4902820   6.7716040  44.2447380  76.3638490   6.9647620
  45.5858830  78.4413180  14.3294960  46.0844080  78.9159000  14.9946810
  45.7281780  77.5176700  14.5364990  47.9918330  73.7467140   7.7698220
  47.8686110  73.7653270   6.8207730  48.9402890  73.7946080   7.8896620
  42.1637920  75.3301560   3.7053140  43.0128450  75.7671710   3.6393330
  41.7969190  75.6421820   4.5325200  52.7925690  74.6581140  15.1723350
  52.2899290  75.3986540  15.5117160  53.6082350  75.0465140  14.8560140
  51.0847700  79.9014320   8.6184710  50.1437840  79.9164550   8.7932400
  51.3991770  79.1150280   9.0645010  39.7576100  79.0158990   2.8621560
  39.8379690  78.0686500   2.9738960  40.6495850  79.3465870   2.9682220
  37.2846900  80.8373910  18.0977730  37.7885920  80.2581190  18.6693960
  36.5454320  81.1214140  18.6354100  44.3384840  82.2444900  17.6313250
  43.5730510  82.8129900  17.5467920  44.5200800  81.9521110  16.7381480
  47.4273250  82.6208130   2.2566010  46.8783350  83.0677430   2.9008750
  48.0492510  82.1157380   2.7803680  39.3169980  78.9803500  18.9927800
  39.3575320  78.6817370  19.9013030  40.1715480  79.3811110  18.8335320
  43.0948370  81.5799050   4.1531310  43.5164790  81.4138920   4.9962700
  43.2199210  80.7699280   3.6586450  41.2575790  77.5595600  16.9602290
  40.7272250  77.0686550  16.3325630  41.9263860  77.9879800  16.4260220
  50.1553850  82.0265060  16.7243480  50.5694870  82.1810140  17.5733900
  49.2204850  82.1520280  16.8869260  50.6276020  79.3661220  18.7282630
  51.2096790  78.6113540  18.6403110  50.8037790  79.8968660  17.9514110
  41.7448090  74.5257970  17.0399580  41.6504960  73.9078720  16.3150450
  41.1645480  75.2524260  16.8129490  44.5109530  73.0831210  14.0726970
  44.0626830  73.1055470  13.2272520  43.8774730  72.6850230  14.6697270
  44.9169080  81.9785540  14.6939410  45.3357190  82.8218270  14.5215650
  43.9977710  82.1157580  14.4646190  47.2532980  79.7101720  16.0777250
  47.3729190  79.1142860  16.8172090  48.1126980  79.7471410  15.6578550
  49.5920880  80.2638910  14.6539760  49.0656100  80.7881530  14.0504900
  49.9352220  80.8966300  15.2849490  44.0201750  76.2523070  17.3353070
  44.6101440  75.9438920  18.0230890  43.2021990  75.7802820  17.4912970
  48.8395180  75.8688880  17.5686090  48.1510700  75.2070420  17.5036080
  49.5601200  75.4227150  18.0134550  49.4695580  72.4640510   3.6276350
  49.7497870  71.6208410   3.9835770  48.6961310  72.6963620   4.1415100
  53.8476300  81.7017240   4.2380260  54.6095210  82.2713890   4.3439950
  53.8630670  81.1344440   5.0088570  37.3480640  80.2255170   8.4687920
  36.6929480  79.9566810   7.8247620  38.1858590  80.1159650   8.0189900
  54.8536270  82.5567340   9.0822190  55.2245100  81.7734660   8.6758160
  55.4938200  83.2456440   8.9039490  50.2971080  75.0196460   2.6906410
  50.7155960  74.8327440   1.8503070  49.9907140  74.1675510   3.0009340
  53.7960810  79.9320600   6.3882210  53.4204410  79.1648530   5.9563500
  53.0663930  80.3143300   6.8757140  38.3856570  80.6107740  13.0091260
  38.7529610  80.5235140  13.8887280  37.8167390  79.8474290  12.9098120
  53.1860430  79.0792120  16.0221730  52.9546520  78.8504870  15.1219680
  53.4464980  79.9991670  15.9766620  37.9372570  77.5216830  16.9149680
  37.0428620  77.4883590  17.2543390  38.4770120  77.7203620  17.6800930
  51.6248500  74.3048550  18.8001430  52.5018680  74.3131950  19.1835430
  51.6369340  73.5679390  18.1893780  36.5618720  77.4354100   4.4113250
  35.6582800  77.6984300   4.2364910  37.0459340  77.7065270   3.6313210
  53.0711770  78.1578090   9.6889450  53.5949250  77.6640740   9.0579620
  53.6571190  78.2928450  10.4337020  53.2501490  78.2417960  13.2109000
  52.3004200  78.2081500  13.3253990  53.4314500  79.1518070  12.9758770
  39.1045930  76.4919640   2.3207630  39.8137630  76.0702860   1.8354910
  38.3885870  76.5594870   1.6890980  52.5611740  77.4151440   5.6281860
  53.0570860  77.1822310   6.4130740  52.3627810  76.5763280   5.2119500
  38.4412280  71.7965160  11.2632900  39.0888470  71.2462540  10.8228060
  38.8614120  72.0508310  12.0848710  53.9898900  76.0512390   8.1619540
  53.8798180  75.8968430   9.1001810  54.7506490  75.5233330   7.9194950
  52.3364620  71.9906520  14.6202540  52.9736840  72.6040660  14.9861730
  52.4839510  72.0267180  13.6751770  54.9527660  74.6530970   4.0282390
  54.1579160  74.5876090   4.5575300  55.1570940  75.5881610   4.0167740
  38.1944280  71.9520830  14.0058220  37.8459100  72.4084650  14.7716400
  37.8631980  71.0577960  14.0880650  45.7069100  73.1432710  17.5277640
  45.6457990  73.7354540  18.2773050  46.6469480  73.0358670  17.3827900
  48.3443660  72.8002770  17.1669930  48.9584070  73.1182060  16.5051010
  48.8893220  72.3151360  17.7865790  38.8664920  71.4797030  17.2808990
  39.4147910  71.2985080  16.5175100  38.9320230  70.6891140  17.8165300
  49.0851700  71.3634910  13.4939220  48.2111540  71.6970020  13.2912150
  48.9762450  70.8908090  14.3191090  49.9923680  73.5705780  14.8780940
  49.6637040  72.7557540  14.4982670  50.9405980  73.5275590  14.7546630
  46.8326520  72.2804750  12.4332130  46.0498310  72.7550250  12.7128890
  46.5389450  71.3759580  12.3245310  51.3847590  72.9827850  10.4781220
  51.8255680  72.9272950   9.6302820  51.1155180  73.8985860  10.5491400
  53.2486160  72.6143090   8.4890040  53.1874560  71.6704310   8.3421060
  54.0278190  72.7223180   9.0343500  38.1766930  72.5852230   4.9545850
  38.9346290  72.6981110   4.3809880  37.7144100  73.4221430   4.9089280
  44.7180740  74.6991500   7.9448160  43.9055250  74.3248390   7.6044040
  45.2222380  73.9436580   8.2469350  49.2205720  71.3633950   9.1831230
  49.8235090  71.9354160   9.6579750  48.4798710  71.9273390   8.9605130
  52.3640320  71.7655510   4.4571510  52.5590950  72.6638960   4.7238940
  51.5770190  71.5342590   4.9504460  40.5492080  73.1116280   3.4947820
  41.0784840  72.3246080   3.3655770  41.1820400  73.7907470   3.7283350
  42.7429920  72.8491420   6.5493210  42.1132660  72.1478730   6.7163340
  42.2035060  73.6095550   6.3326370  42.8685480  72.1275400  18.9845700
  42.5869750  72.6309000  18.2206520  43.2505180  71.3297150  18.6187830
  49.4700940  71.5428980  19.5626170  49.3566390  71.8623590  20.4577690
  50.2870680  71.9441490  19.2663450  48.3759090  60.7877960  83.7978360
  48.2953140  59.8732570  83.5270070  47.9623510  61.2845030  83.0918070
  46.5077130  62.5656980  85.6787630  45.7319230  62.0857420  85.9686200
  47.1590060  61.8862630  85.5043790  40.5242960  62.8776790  86.5563390
  39.6927840  62.6225500  86.9559900  41.1323940  62.9487560  87.2921310
  50.5284560  66.9717170  84.4586760  50.0666090  66.2004410  84.7873930
  51.3410110  66.9983240  84.9639210  40.5044220  66.9116880  86.7521410
  40.8072260  66.0214620  86.5731630  41.2487810  67.4687100  86.5243660
  36.8967920  60.4384330  86.2245480  37.4684030  59.6706530  86.2249120
  36.8969460  60.7373090  85.3152090  46.7547870  69.2575180  84.0790750
  46.1359310  69.7132680  83.5085190  47.6099650  69.4126640  83.6780450
  45.9486120  65.2414170  85.6857790  45.8794400  64.3004110  85.5246920
  46.7105980  65.3315580  86.2580360  38.1392790  55.8468690  88.0114410
  37.9595630  54.9494440  88.2917170  37.7372870  56.3940560  88.6861360
  46.9791290  58.0484550  85.9126720  47.3556110  57.1756430  85.8000390
  46.8810800  58.3843250  85.0217160  50.7615410  55.5434990  82.8455060
  51.5825030  55.0531560  82.8880540  50.7949490  56.1332650  83.5986900
  38.7579460  58.3429190  86.6196750  39.4389570  58.6067560  87.2384150
  38.4427510  57.5030060  86.9534760  42.9504030  59.3896550  85.7069340
  43.4582250  59.8877520  86.3474360  43.4817270  58.6131750  85.5308700
  55.0514960  57.5601740  89.4098690  54.3467130  57.9483450  88.8913800
  55.3172880  58.2552030  90.0119620  41.2340130  54.0295110  89.9732760
  41.2358570  54.5467500  89.1678660  40.4044440  53.5525290  89.9502690
  47.6211220  64.1414420  81.4722660  47.0028490  64.6063870  80.9085380
  48.1334470  64.8341900  81.8892170  42.4842980  63.6690290  88.1506260
  42.1512360  64.2959210  88.7927330  42.6609660  64.1952170  87.3707930
  50.9976890  57.4835370  85.6182600  50.2932460  57.7720260  86.1985710
  51.3589050  58.2935480  85.2582160  40.9155460  55.7405070  87.9803210
  41.2572270  56.5847120  87.6857080  39.9771270  55.8888810  88.0968550
  41.6962080  65.6371090  89.9655440  42.3136080  66.3122170  89.6839890
  40.8355200  66.0459070  89.8742940  36.9894420  64.8270950  78.8462290
  36.6122400  65.3158050  78.1147190  37.2467490  65.4996230  79.4768820
  52.6139670  67.1010500  87.8810080  51.9303190  67.7709610  87.8726750
  53.1533960  67.2991150  87.1154940  54.0663810  56.9290160  86.0091810
  53.1188720  56.9629140  86.1407240  54.3913800  57.7429110  86.3941170
  44.5983350  53.2287340  84.3047800  44.9058330  52.6734230  83.5883300
  43.6684050  53.3631800  84.1220790  50.1498410  68.9454630  86.5955260
  50.1625570  68.5416920  85.7277520  49.5973630  69.7201920  86.4916690
  51.4443830  65.6670850  81.6845430  51.3340160  64.7245180  81.8094850
  51.4412080  66.0286490  82.5708190  49.5483850  63.8484470  87.9237870
  49.9652640  63.6344580  87.0891330  50.2723670  64.1057260  88.4946490
  46.9864110  61.2936170  81.0407920  46.0593390  61.2273550  81.2696390
  47.1388930  62.2316300  80.9263160  53.4945950  62.2471690  88.0154110
  52.6664580  62.3164780  87.5404240  54.0896430  62.8326000  87.5469940
  51.0161400  62.8556470  81.5443170  50.3973820  62.5176020  80.8969470
  50.9985850  62.2116230  82.2522360  50.4587960  59.0341010  88.9608980
  50.0459140  59.8594720  89.2148970  49.7263910  58.4486050  88.7685340
  42.5920750  61.8200910  83.8227650  42.1877750  61.1078160  83.3273550
  42.6783870  61.4754150  84.7115690  43.0602450  65.5068470  85.9866860
  42.7630740  64.9013940  85.3074640  44.0102270  65.5445780  85.8756220
  41.3049370  58.5944120  87.6026690  41.8563960  58.7039460  86.8279940
  41.8192880  58.9681720  88.3181920  51.1488060  69.0800340  89.6489960
  50.6718620  69.8872530  89.4562570  50.4649850  68.4278670  89.8016170
  42.1520880  65.2450160  92.6374660  41.2549410  65.4690130  92.8848060
  42.1773750  65.3685100  91.6886060  49.1926100  62.0943280  78.5515920
  49.6319380  61.2565710  78.4053740  49.9054520  62.7272680  78.6380060
  40.9792100  62.1163480  91.2132030  40.8399870  62.9886280  91.5819430
  40.0973460  61.7736290  91.0679970  47.3021480  67.0339350  82.5197160
  47.7417390  67.7763680  82.1052550  47.2408370  67.2765920  83.4436120
  42.7772450  68.0585180  93.4217180  42.7487880  68.4628130  92.5545610
  42.6137420  67.1295540  93.2588780  52.7743240  53.3486090  76.8656960
  52.4615900  53.4412920  77.7656030  53.5355710  53.9267120  76.8154390
  36.9310750  63.8861030  87.1302940  37.0091170  64.0209800  86.1858660
  37.5452430  63.1776920  87.3231060  38.1758380  65.5861220  83.5409120
  37.7686460  65.7275810  82.6862720  39.0671390  65.3021380  83.3380330
  54.1320520  66.0325130  91.8781360  54.2583580  65.7937010  90.9598540
  54.1741900  65.2009670  92.3503440  47.9937260  69.7353130  90.4476170
  48.5081930  69.6461140  91.2498600  47.1506340  70.0812830  90.7404080
  49.9691660  70.0208470  79.8760170  49.8092800  69.7311410  80.7742000
  49.8038370  69.2448600  79.3405400  42.4480040  69.8007000  81.6531790
  42.2722520  68.8842540  81.4399590  41.5935780  70.1594290  81.8929590
  49.6717790  67.5296030  78.4358170  48.9782950  67.5273320  77.7760450
  50.4140650  67.1055350  78.0052340  49.2367720  69.1558740  82.5106660
  49.6924670  68.3748120  82.8245280  49.5760240  69.8665560  83.0547840
  53.9844530  58.0857590  92.8431100  53.3688800  58.5937260  92.3146560
  53.6640950  57.1855920  92.7857040  36.9870270  64.9275200  89.6697400
  37.1501310  64.4580560  88.8516770  37.4522720  64.4198760  90.3346240
  41.7589040  54.0580960  84.7057970  41.3157190  54.8390500  84.3742490
  42.3174030  54.3810850  85.4128910  46.0458850  56.9249480  90.3093290
  45.5838220  57.1332500  91.1213230  45.6436960  56.1108830  90.0063960
  51.0463360  58.1458430  91.4389950  50.1956950  57.8464180  91.7599020
  50.8865150  58.3900440  90.5273770  48.1413070  59.6460180  93.5388740
  48.4666480  58.8123930  93.1990970  48.9293400  60.1688700  93.6867070
  43.7964940  54.6028290  86.5647570  44.0937270  55.5091120  86.4839590
  44.3450500  54.1147070  85.9507140  48.7801020  59.1877900  81.0329870
  48.1809910  59.9113700  80.8493490  49.3280630  59.1254680  80.2506320
  43.9902470  60.0800110  93.0999490  43.8946070  59.1394840  92.9499890
  44.8334450  60.3015180  92.7047560  47.3865890  57.8241440  83.0633150
  47.7795460  58.1413640  82.2501840  47.7482740  56.9453320  83.1777670
  39.1213010  56.4913780  91.2533270  38.7276400  57.3388990  91.4606050
  38.4331410  55.8540150  91.4441910  36.4230060  54.4142240  85.2863350
  36.1343110  54.9845100  85.9988330  37.1675820  53.9346690  85.6494580
  47.9721030  60.4147190  87.1583930  47.2402150  60.9234000  87.5074030
  47.5745370  59.5977170  86.8572710  48.4346940  55.8680870  86.5706870
  48.4519680  56.3189520  87.4148720  48.1862520  54.9686510  86.7840310
  51.8617690  53.2813050  92.4093250  52.1863460  52.5502710  92.9351230
  51.8974200  52.9626690  91.5074240  38.5609250  64.3026630  91.8293210
  38.1764040  63.6620300  92.4276170  38.8721440  65.0062750  92.3987940
  44.7106390  61.1503170  87.3101830  45.0776520  60.6761740  88.0563170
  44.5211450  62.0244740  87.6510170  42.5005760  60.1911810  89.6286040
  42.1962830  61.0703790  89.8536400  43.4552220  60.2511600  89.6643480
  41.0287550  64.3972800  80.2252890  40.2549810  63.8570420  80.0651610
  41.7582180  63.8779410  79.8870650  51.7875530  63.3938160  86.0179280
  52.5074650  63.8893450  85.6275390  51.5857350  62.7156050  85.3733150
  47.2485470  54.7876120  80.1608670  46.4350080  54.2889290  80.0853980
  47.0547420  55.6274370  79.7445020  47.1694330  63.4647220  91.9048280
  47.1031640  62.5442890  91.6505870  46.5399470  63.5622660  92.6192920
  49.9633860  59.1595770  78.4570830  50.8513480  59.4713000  78.2822170
  49.9338950  58.2868020  78.0651410  41.0724950  64.0653180  83.8631700
  41.5903620  63.2621440  83.8088590  40.6208970  64.0032320  84.7048530
  45.9594450  65.3319460  79.1359000  46.3010150  66.0761690  78.6402320
  45.1307160  65.6450580  79.4983830  38.5569490  61.0314550  90.7757400
  38.1984430  61.6968400  91.3630740  38.2624050  60.1998100  91.1470020
  41.7582610  61.4898790  93.6596950  41.4582750  61.6355970  92.7624770
  42.5293850  60.9304080  93.5670340  47.1011060  66.2867790  91.6552080
  47.1155600  65.3548750  91.4370990  46.3936160  66.3727550  92.2941850
  52.2348130  60.4707610  77.9250690  52.1511850  60.9021830  77.0747130
  52.9542320  60.9305960  78.3577510  53.3122270  62.9275130  91.0020660
  52.5870460  63.5203910  90.8050050  53.8397730  62.9198670  90.2034030
  53.2635380  67.3249870  80.6532820  52.6211540  66.6705490  80.9276540
  52.8766040  67.7304960  79.8773490  48.8421860  64.6535300  84.5004510
  49.1945680  64.0563430  83.8405880  47.9584190  64.3279530  84.6712760
  44.9285140  65.4132990  81.9074920  45.6156270  65.9602200  82.2882510
  44.1417560  65.9573720  81.9424530  46.5344960  67.9285360  88.7492580
  47.1787180  68.1344740  89.4266000  46.8974400  67.1673760  88.2963430
  47.8077040  65.9317710  87.4670030  48.4499270  65.2310870  87.5802200
  48.3326390  66.7116150  87.2866920  51.6532760  66.2166330  77.1909170
  51.4270340  65.4996770  77.7833810  51.2628960  65.9678770  76.3530920
  49.5814660  66.7312610  90.6706090  49.9170900  67.3179300  91.3484010
  48.6615000  66.6005320  90.9003880  37.4348790  70.2433190  77.9653630
  37.7946430  70.8422530  77.3110900  37.2941130  70.7893080  78.7388660
  37.1318060  54.5207790  91.4529500  36.4176580  54.7204710  92.0582110
  37.5513100  53.7447360  91.8244300  51.2349010  64.1338270  78.8523330
  50.9470710  64.5950960  79.6401210  52.0301180  63.6736040  79.1207550
  37.4190650  68.5088050  92.4396030  37.5281770  67.5682790  92.2991420
  36.7671210  68.7742800  91.7909760  43.4517410  67.6264390  78.7827300
  43.4427510  68.3594080  78.1671810  42.5315770  67.3795970  78.8754260
  39.0524050  62.8479280  79.5274060  38.4452000  63.5878180  79.5369360
  39.5273400  62.9378640  78.7012260  48.6256840  57.0130100  89.2030950
  48.9937660  56.1925310  89.5310520  47.7655040  57.0731990  89.6186600
  51.9918870  55.9687040  80.0118510  51.3632030  56.0732710  79.2976740
  51.4970790  56.1883820  80.8012390  46.4377010  67.6892630  77.4452490
  46.5388990  67.4856620  76.5154470  45.5378750  67.4350910  77.6500270
  45.5858830  59.6669690  89.4268920  46.0844080  60.1415510  90.0920770
  45.7281780  58.7433210  89.6338950  47.9918330  54.9723650  82.8672180
  47.8686110  54.9909780  81.9181690  48.9402890  55.0202590  82.9870580
  45.0795120  70.2078950  82.1400160  45.3336620  70.1700340  81.2179530
  44.1307600  70.0812280  82.1328410  52.7925690  55.8837650  90.2697310
  52.2899290  56.6243050  90.6091120  53.6082350  56.2721650  89.9534100
  51.0847700  61.1270830  83.7158670  50.1437840  61.1421060  83.8906360
  51.3991770  60.3406790  84.1618970  53.0873280  68.2979680  85.3912930
  53.2120700  69.1210850  85.8636740  53.9538840  68.0870410  85.0437080
  40.5590810  70.3910890  85.0630060  41.2953290  69.8426350  85.3338630
  40.9431730  71.2566900  84.9236050  37.4436290  66.4584460  80.9371570
  36.5176070  66.7005600  80.9276980  37.9092720  67.2858720  80.8156320
  43.6693120  69.5641200  76.8855630  44.4621730  69.8530030  76.4337420
  43.1497470  69.1333370  76.2068110  49.8314090  69.4117120  92.8100460
  50.7835840  69.3275140  92.7600700  49.6842310  70.0758830  93.4834250
  52.7223290  68.7911330  78.3092370  52.4364800  68.3776470  77.4946550
  52.5242840  69.7199040  78.1892890  37.2846900  62.0630420  93.1951690
  37.7885920  61.4837700  93.7667920  36.5454320  62.3470650  93.7328060
  44.1870520  64.7844610  76.7497980  44.0821160  64.1696960  77.4759360
  44.0194740  64.2610500  75.9660990  44.3384840  63.4701410  92.7287210
  43.5730510  64.0386410  92.6441880  44.5200800  63.1777620  91.8355440
  47.4273250  63.8464640  77.3539970  46.8783350  64.2933940  77.9982710
  48.0492510  63.3413890  77.8777640  51.4808190  65.2006740  93.2862230
  52.2217660  65.5382500  92.7829690  50.7180870  65.3698800  92.7332000
  41.2575790  58.7852110  92.0576250  40.7272250  58.2943060  91.4299590
  41.9263860  59.2136310  91.5234180  50.1553850  63.2521570  91.8217440
  50.5694870  63.4066650  92.6707860  49.2204850  63.3776790  91.9843220
  50.6276020  60.5917730  93.8256590  51.2096790  59.8370050  93.7377070
  50.8037790  61.1225170  93.0488070  41.7448090  55.7514480  92.1373540
  41.6504960  55.1335230  91.4124410  41.1645480  56.4780770  91.9103450
  44.5109530  54.3087720  89.1700930  44.0626830  54.3311980  88.3246480
  43.8774730  53.9106740  89.7671230  44.9169080  63.2042050  89.7913370
  45.3357190  64.0474780  89.6189610  43.9977710  63.3414090  89.5620150
  47.2532980  60.9358230  91.1751210  47.3729190  60.3399370  91.9146050
  48.1126980  60.9727920  90.7552510  49.5920880  61.4895420  89.7513720
  49.0656100  62.0138040  89.1478860  49.9352220  62.1222810  90.3823450
  42.7676500  69.5095060  90.9071100  42.2297590  70.2341120  90.5879800
  43.0210460  69.0325400  90.1168440  44.0201750  57.4779580  92.4327030
  44.6101440  57.1695430  93.1204850  43.2021990  57.0059330  92.5886930
  48.8395180  57.0945390  92.6660050  48.1510700  56.4326930  92.6010040
  49.5601200  56.6483660  93.1108510  49.4695580  53.6897020  78.7250310
  49.7497870  52.8464920  79.0809730  48.6961310  53.9220130  79.2389060
  45.6238710  70.7446270  91.1657750  45.5497410  71.6481410  91.4730120
  44.7217550  70.4258170  91.1379820  46.1724040  69.9104780  78.7884110
  47.0674830  70.2489750  78.8102870  46.2041670  69.1884190  78.1608390
  39.8120200  65.2831830  77.0171110  40.2495070  65.8261500  77.6728690
  40.2967930  64.4578780  77.0267450  37.0266000  68.0720860  84.4691370
  37.3569010  67.2041920  84.2370010  37.4557000  68.2779380  85.2996330
  41.6227920  66.4029870  82.1293340  41.3223460  66.2794840  83.0297250
  41.5165410  65.5438460  81.7209070  37.5156210  68.9391450  87.2073000
  37.0787200  69.1192250  88.0397150  38.0833890  69.6966070  87.0654720
  53.1518390  68.4408450  91.4950310  52.5520380  68.5001010  90.7514230
  53.2812290  67.5013430  91.6247160  54.3919840  66.1826270  76.8320020
  53.5612800  66.2502920  77.3027250  54.5691670  67.0730390  76.5286880
  53.8476300  62.9273750  79.3354220  54.6095210  63.4970400  79.4413910
  53.8630670  62.3600950  80.1062530  37.3480640  61.4511680  83.5661880
  36.6929480  61.1823320  82.9221580  38.1858590  61.3416160  83.1163860
  54.8536270  63.7823850  84.1796150  55.2245100  62.9991170  83.7732120
  55.4938200  64.4712950  84.0013450  51.8370030  65.1660430  89.5926470
  51.0229870  65.5957590  89.8552260  52.2444230  65.7778840  88.9795520
  53.8995470  63.2208120  76.4926740  54.1744310  64.1287000  76.3645960
  53.7106210  63.1570650  77.4288730  50.2971080  56.2452970  77.7880370
  50.7155960  56.0583950  76.9477030  49.9907140  55.3932020  78.0983300
  53.7960810  61.1577110  81.4856170  53.4204410  60.3905040  81.0537460
  53.0663930  61.5399810  81.9731100  38.3856570  61.8364250  88.1065220
  38.7529610  61.7491650  88.9861240  37.8167390  61.0730800  88.0072080
  53.1860430  60.3048630  91.1195690  52.9546520  60.0761380  90.2193640
  53.4464980  61.2248180  91.0740580  37.9372570  58.7473340  92.0123640
  37.0428620  58.7140100  92.3517350  38.4770120  58.9460130  92.7774890
  53.0711770  59.3834600  84.7863410  53.5949250  58.8897250  84.1553580
  53.6571190  59.5184960  85.5310980  53.2501490  59.4674470  88.3082960
  52.3004200  59.4338010  88.4227950  53.4314500  60.3774580  88.0732730
  52.5611740  58.6407950  80.7255820  53.0570860  58.4078820  81.5104700
  52.3627810  57.8019790  80.3093460  38.4412280  53.0221670  86.3606860
  39.0888470  52.4719050  85.9202020  38.8614120  53.2764820  87.1822670
  53.9898900  57.2768900  83.2593500  53.8798180  57.1224940  84.1975770
  54.7506490  56.7489840  83.0168910  52.3364620  53.2163030  89.7176500
  52.9736840  53.8297170  90.0835690  52.4839510  53.2523690  88.7725730
  54.8789170  55.1076820  76.4999640  55.8038480  54.9758000  76.2917930
  54.8564960  55.1869640  77.4536090  54.9527660  55.8787480  79.1256350
  54.1579160  55.8132600  79.6549260  55.1570940  56.8138120  79.1141700
  51.8946080  69.9179030  83.1194740  52.4905150  69.5963600  82.4429160
  52.1524230  69.4450850  83.9108010  38.1944280  53.1777340  89.1032180
  37.8459100  53.6341160  89.8690360  37.8631980  52.2834470  89.1854610
  43.5014680  67.9056530  88.8695090  43.2606040  68.1731090  87.9825610
  44.4417320  68.0762260  88.9245950  45.7069100  54.3689220  92.6251600
  45.6457990  54.9611050  93.3747010  46.6469480  54.2615180  92.4801860
  48.3443660  54.0259280  92.2643890  48.9584070  54.3438570  91.6024970
  48.8893220  53.5407870  92.8839750  54.7618840  69.9250910  89.6705730
  54.2677120  70.3219780  88.9532860  54.1532130  69.3000120  90.0643010
  38.8664920  52.7053540  92.3782950  39.4147910  52.5241590  91.6149060
  38.9320230  51.9147650  92.9139260  39.6396680  69.2959190  90.3883150
  39.0457000  69.1643890  91.1273190  39.6320520  68.4597330  89.9225250
  49.0851700  52.5891420  88.5913180  48.2111540  52.9226530  88.3886110
  48.9762450  52.1164600  89.4165050  49.9923680  54.7962290  89.9754900
  49.6637040  53.9814050  89.5956630  50.9405980  54.7532100  89.8520590
  52.4458290  70.5674330  86.9492470  51.9861260  71.3190140  86.5750490
  51.8170750  69.8480800  86.8907270  39.2708910  66.6617570  89.3391190
  38.5442970  66.0422860  89.2717140  39.3318060  67.0558180  88.4689270
  42.8754010  68.8762570  86.1240600  43.3919030  68.2649930  85.5988860
  43.5251390  69.3791350  86.6151610  45.6149510  69.7671060  86.9509580
  45.9027320  69.5125360  86.0742590  46.1272730  69.2148420  87.5415150
  46.8326520  53.5061260  87.5306090  46.0498310  53.9806760  87.8102850
  46.5389450  52.6016090  87.4219270  51.3847590  54.2084360  85.5755180
  51.8255680  54.1529460  84.7276780  51.1155180  55.1242370  85.6465360
  53.2486160  53.8399600  83.5864000  53.1874560  52.8960820  83.4395020
  54.0278190  53.9479690  84.1317460  37.5538910  69.9791960  82.5487950
  37.3860950  69.3462640  83.2469840  36.6873420  70.1851360  82.1982140
  49.2205720  52.5890460  84.2805190  49.8235090  53.1610670  84.7553710
  48.4798710  53.1529900  84.0579090  52.3640320  52.9912020  79.5545470
  52.5590950  53.8895470  79.8212900  51.5770190  52.7599100  80.0478420
  39.1601610  68.6725190  79.9938090  38.6349230  69.0533220  79.2900050
  39.0846190  69.2975960  80.7147800  53.9166930  70.2312730  81.3152030
  54.0919120  69.5450470  80.6712950  53.2188500  70.7559780  80.9228700
  41.7594580  70.6207570  78.8687340  42.4913400  70.3366850  78.3211230
  42.0188250  70.3820850  79.7586720  40.9209370  66.7372300  78.8733670
  40.2918250  67.2057400  79.4219500  41.0357200  65.8921520  79.3079860
  46.5077130  62.5656980  66.9044140  45.7319230  62.0857420  67.1942710
  47.1590060  61.8862630  66.7300300  40.5044220  66.9116880  67.9777920
  40.8072260  66.0214620  67.7988140  41.2487810  67.4687100  67.7500170
  46.7547870  69.2575180  65.3047260  46.1359310  69.7132680  64.7341700
  47.6099650  69.4126640  64.9036960  45.9486120  65.2414170  66.9114300
  45.8794400  64.3004110  66.7503430  46.7105980  65.3315580  67.4836870
  42.4842980  63.6690290  69.3762770  42.1512360  64.2959210  70.0183840
  42.6609660  64.1952170  68.5964440  41.6962080  65.6371090  71.1911950
  42.3136080  66.3122170  70.9096400  40.8355200  66.0459070  71.0999450
  52.6139670  67.1010500  69.1066590  51.9303190  67.7709610  69.0983260
  53.1533960  67.2991150  68.3411450  50.1498410  68.9454630  67.8211770
  50.1625570  68.5416920  66.9534030  49.5973630  69.7201920  67.7173200
  49.5483850  63.8484470  69.1494380  49.9652640  63.6344580  68.3147840
  50.2723670  64.1057260  69.7203000  53.4945950  62.2471690  69.2410620
  52.6664580  62.3164780  68.7660750  54.0896430  62.8326000  68.7726450
  43.0602450  65.5068470  67.2123370  42.7630740  64.9013940  66.5331150
  44.0102270  65.5445780  67.1012730  51.1488060  69.0800340  70.8746470
  50.6718620  69.8872530  70.6819080  50.4649850  68.4278670  71.0272680
  42.7772450  68.0585180  74.6473690  42.7487880  68.4628130  73.7802120
  42.6137420  67.1295540  74.4845290  54.7287270  68.8412280  75.9437860
  55.2046990  69.3195170  76.6226940  55.3494430  68.7729770  75.2183360
  36.9310750  63.8861030  68.3559450  37.0091170  64.0209800  67.4115170
  37.5452430  63.1776920  68.5487570  54.1320520  66.0325130  73.1037870
  54.2583580  65.7937010  72.1855050  54.1741900  65.2009670  73.5759950
  47.9937260  69.7353130  71.6732680  48.5081930  69.6461140  72.4755110
  47.1506340  70.0812830  71.9660590  42.4480040  69.8007000  62.8788300
  42.2722520  68.8842540  62.6656100  41.5935780  70.1594290  63.1186100
  49.2367720  69.1558740  63.7363170  49.6924670  68.3748120  64.0501790
  49.5760240  69.8665560  64.2804350  53.9844530  58.0857590  74.0687610
  53.3688800  58.5937260  73.5403070  53.6640950  57.1855920  74.0113550
  36.9870270  64.9275200  70.8953910  37.1501310  64.4580560  70.0773280
  37.4522720  64.4198760  71.5602750  47.1694330  63.4647220  73.1304790
  47.1031640  62.5442890  72.8762380  46.5399470  63.5622660  73.8449430
  47.1011060  66.2867790  72.8808590  47.1155600  65.3548750  72.6627500
  46.3936160  66.3727550  73.5198360  53.3122270  62.9275130  72.2277170
  52.5870460  63.5203910  72.0306560  53.8397730  62.9198670  71.4290540
  44.9285140  65.4132990  63.1331430  45.6156270  65.9602200  63.5139020
  44.1417560  65.9573720  63.1681040  46.5344960  67.9285360  69.9749090
  47.1787180  68.1344740  70.6522510  46.8974400  67.1673760  69.5219940
  47.8077040  65.9317710  68.6926540  48.4499270  65.2310870  68.8058710
  48.3326390  66.7116150  68.5123430  49.5814660  66.7312610  71.8962600
  49.9170900  67.3179300  72.5740520  48.6615000  66.6005320  72.1260390
  37.4190650  68.5088050  73.6652540  37.5281770  67.5682790  73.5247930
  36.7671210  68.7742800  73.0166270  45.4103240  66.7803940  75.0650660
  45.0900110  66.0613180  75.6096350  44.7361600  67.4559010  75.1386720
  43.4517410  67.6264390  60.0083810  43.4427510  68.3594080  59.3928320
  42.5315770  67.3795970  60.1010770  45.0795120  70.2078950  63.3656670
  45.3336620  70.1700340  62.4436040  44.1307600  70.0812280  63.3584920
  53.0873280  68.2979680  66.6169440  53.2120700  69.1210850  67.0893250
  53.9538840  68.0870410  66.2693590  40.5590810  70.3910890  66.2886570
  41.2953290  69.8426350  66.5595140  40.9431730  71.2566900  66.1492560
  39.5649090  69.5756960  75.4772150  40.3661820  69.8969010  75.8907550
  39.0500910  69.2152540  76.1992060  48.4013720  65.6836830  75.4247560
  47.7951880  65.7068430  74.6843310  48.0967830  64.9519870  75.9614810
  49.8314090  69.4117120  74.0356970  50.7835840  69.3275140  73.9857210
  49.6842310  70.0758830  74.7090760  51.4808190  65.2006740  74.5118740
  52.2217660  65.5382500  74.0086200  50.7180870  65.3698800  73.9588510
  43.0948370  62.8055560  60.4761780  43.5164790  62.6395430  61.3193170
  43.2199210  61.9955790  59.9816920  50.1553850  63.2521570  73.0473950
  50.5694870  63.4066650  73.8964370  49.2204850  63.3776790  73.2099730
  50.6276020  60.5917730  75.0513100  51.2096790  59.8370050  74.9633580
  50.8037790  61.1225170  74.2744580  44.9169080  63.2042050  71.0169880
  45.3357190  64.0474780  70.8446120  43.9977710  63.3414090  70.7876660
  42.7676500  69.5095060  72.1327610  42.2297590  70.2341120  71.8136310
  43.0210460  69.0325400  71.3424950  45.6238710  70.7446270  72.3914260
  45.5497410  71.6481410  72.6986630  44.7217550  70.4258170  72.3636330
  37.0266000  68.0720860  65.6947880  37.3569010  67.2041920  65.4626520
  37.4557000  68.2779380  66.5252840  41.6227920  66.4029870  63.3549850
  41.3223460  66.2794840  64.2553760  41.5165410  65.5438460  62.9465580
  37.5156210  68.9391450  68.4329510  37.0787200  69.1192250  69.2653660
  38.0833890  69.6966070  68.2911230  53.1518390  68.4408450  72.7206820
  52.5520380  68.5001010  71.9770740  53.2812290  67.5013430  72.8503670
  51.8370030  65.1660430  70.8182980  51.0229870  65.5957590  71.0808770
  52.2444230  65.7778840  70.2052030  53.1860430  60.3048630  72.3452200
  52.9546520  60.0761380  71.4450150  53.4464980  61.2248180  72.2997090
  51.6248500  55.5305060  75.1231900  52.5018680  55.5388460  75.5065900
  51.6369340  54.7935900  74.5124250  51.8946080  69.9179030  64.3451250
  52.4905150  69.5963600  63.6685670  52.1524230  69.4450850  65.1364520
  39.8008650  66.3496940  74.4941880  39.7578280  65.9789850  75.3756340
  39.9319660  67.2874510  74.6343700  43.5014680  67.9056530  70.0951600
  43.2606040  68.1731090  69.2082120  44.4417320  68.0762260  70.1502460
  54.7618840  69.9250910  70.8962240  54.2677120  70.3219780  70.1789370
  54.1532130  69.3000120  71.2899520  39.6396680  69.2959190  71.6139660
  39.0457000  69.1643890  72.3529700  39.6320520  68.4597330  71.1481760
  52.4458290  70.5674330  68.1748980  51.9861260  71.3190140  67.8007000
  51.8170750  69.8480800  68.1163780  39.2708910  66.6617570  70.5647700
  38.5442970  66.0422860  70.4973650  39.3318060  67.0558180  69.6945780
  42.8754010  68.8762570  67.3497110  43.3919030  68.2649930  66.8245370
  43.5251390  69.3791350  67.8408120  45.6149510  69.7671060  68.1766090
  45.9027320  69.5125360  67.2999100  46.1272730  69.2148420  68.7671660
  37.5538910  69.9791960  63.7744460  37.3860950  69.3462640  64.4726350
  36.6873420  70.1851360  63.4238650  45.6821870  70.6887160  75.5434290
  46.6089180  70.4531430  75.5870250  45.6672300  71.5159160  75.0620320
  53.9166930  70.2312730  62.5408540  54.0919120  69.5450470  61.8969460
  53.2188500  70.7559780  62.1485210  41.7594580  70.6207570  60.0943850
  42.4913400  70.3366850  59.5467740  42.0188250  70.3820850  60.9843230
  52.2499430  69.9157020  75.3675330  53.0424750  69.4206250  75.1601290
  52.5432580  70.5947160  75.9750940  40.5242960  62.8776790  49.0076410
  39.6927840  62.6225500  49.4072920  41.1323940  62.9487560  49.7434330
  46.7547870  69.2575180  46.5303770  46.1359310  69.7132680  45.9598210
  47.6099650  69.4126640  46.1293470  36.9894420  64.8270950  41.2975310
  36.6122400  65.3158050  40.5660210  37.2467490  65.4996230  41.9281840
  47.3021480  67.0339350  44.9710180  47.7417390  67.7763680  44.5565570
  47.2408370  67.2765920  45.8949140  42.7772450  68.0585180  55.8730200
  42.7487880  68.4628130  55.0058630  42.6137420  67.1295540  55.7101800
  36.9310750  63.8861030  49.5815960  37.0091170  64.0209800  48.6371680
  37.5452430  63.1776920  49.7744080  38.1758380  65.5861220  45.9922140
  37.7686460  65.7275810  45.1375740  39.0671390  65.3021380  45.7893350
  49.9691660  70.0208470  42.3273190  49.8092800  69.7311410  43.2255020
  49.8038370  69.2448600  41.7918420  42.4480040  69.8007000  44.1044810
  42.2722520  68.8842540  43.8912610  41.5935780  70.1594290  44.3442610
  49.2367720  69.1558740  44.9619680  49.6924670  68.3748120  45.2758300
  49.5760240  69.8665560  45.5060860  41.0287550  64.3972800  42.6765910
  40.2549810  63.8570420  42.5164630  41.7582180  63.8779410  42.3383670
  41.0724950  64.0653180  46.3144720  41.5903620  63.2621440  46.2601610
  40.6208970  64.0032320  47.1561550  44.9285140  65.4132990  44.3587940
  45.6156270  65.9602200  44.7395530  44.1417560  65.9573720  44.3937550
  37.4348790  70.2433190  40.4166650  37.7946430  70.8422530  39.7623920
  37.2941130  70.7893080  41.1901680  37.4190650  68.5088050  54.8909050
  37.5281770  67.5682790  54.7504440  36.7671210  68.7742800  54.2422780
  43.4517410  67.6264390  41.2340320  43.4427510  68.3594080  40.6184830
  42.5315770  67.3795970  41.3267280  46.4377010  67.6892630  39.8965510
  46.5388990  67.4856620  38.9667490  45.5378750  67.4350910  40.1013290
  45.0795120  70.2078950  44.5913180  45.3336620  70.1700340  43.6692550
  44.1307600  70.0812280  44.5841430  40.5590810  70.3910890  47.5143080
  41.2953290  69.8426350  47.7851650  40.9431730  71.2566900  47.3749070
  37.4436290  66.4584460  43.3884590  36.5176070  66.7005600  43.3790000
  37.9092720  67.2858720  43.2669340  39.5649090  69.5756960  56.7028660
  40.3661820  69.8969010  57.1164060  39.0500910  69.2152540  57.4248570
  43.6693120  69.5641200  39.3368650  44.4621730  69.8530030  38.8850440
  43.1497470  69.1333370  38.6581130  42.7676500  69.5095060  53.3584120
  42.2297590  70.2341120  53.0392820  43.0210460  69.0325400  52.5681460
  45.6238710  70.7446270  53.6170770  45.5497410  71.6481410  53.9243140
  44.7217550  70.4258170  53.5892840  46.1724040  69.9104780  41.2397130
  47.0674830  70.2489750  41.2615890  46.2041670  69.1884190  40.6121410
  37.0266000  68.0720860  46.9204390  37.3569010  67.2041920  46.6883030
  37.4557000  68.2779380  47.7509350  41.6227920  66.4029870  44.5806360
  41.3223460  66.2794840  45.4810270  41.5165410  65.5438460  44.1722090
  37.5156210  68.9391450  49.6586020  37.0787200  69.1192250  50.4910170
  38.0833890  69.6966070  49.5167740  39.6396680  69.2959190  52.8396170
  39.0457000  69.1643890  53.5786210  39.6320520  68.4597330  52.3738270
  39.2708910  66.6617570  51.7904210  38.5442970  66.0422860  51.7230160
  39.3318060  67.0558180  50.9202290  42.8754010  68.8762570  48.5753620
  43.3919030  68.2649930  48.0501880  43.5251390  69.3791350  49.0664630
  37.5538910  69.9791960  45.0000970  37.3860950  69.3462640  45.6982860
  36.6873420  70.1851360  44.6495160  39.1601610  68.6725190  42.4451110
  38.6349230  69.0533220  41.7413070  39.0846190  69.2975960  43.1660820
  41.7594580  70.6207570  41.3200360  42.4913400  70.3366850  40.7724250
  42.0188250  70.3820850  42.2099740  40.9209370  66.7372300  41.3246690
  40.2918250  67.2057400  41.8732520  41.0357200  65.8921520  41.7592880
  40.5044220  66.9116880  30.4290940  40.8072260  66.0214620  30.2501160
  41.2487810  67.4687100  30.2013190  38.9334910  57.8378680  24.0175310
  38.0451610  58.1794650  23.9155190  39.2176100  57.6379000  23.1256140
  36.8967920  60.4384330  29.9015010  37.4684030  59.6706530  29.9018650
  36.8969460  60.7373090  28.9921620  41.1096300  56.4210180  25.0513690
  41.2163050  57.3213910  25.3582450  40.1988660  56.3728150  24.7608340
  38.7579460  58.3429190  30.2966280  39.4389570  58.6067560  30.9153680
  38.4427510  57.5030060  30.6304290  36.9894420  64.8270950  22.5231820
  36.6122400  65.3158050  21.7916720  37.2467490  65.4996230  23.1538350
  50.1498410  68.9454630  30.2724790  50.1625570  68.5416920  29.4047050
  49.5973630  69.7201920  30.1686220  51.1488060  69.0800340  33.3259490
  50.6718620  69.8872530  33.1332100  50.4649850  68.4278670  33.4785700
  39.2925380  60.7145890  25.0003830  39.1722980  61.4407980  24.3885100
  38.9826270  59.9448800  24.5231740  36.9310750  63.8861030  30.8072470
  37.0091170  64.0209800  29.8628190  37.5452430  63.1776920  31.0000590
  38.1758380  65.5861220  27.2178650  37.7686460  65.7275810  26.3632250
  39.0671390  65.3021380  27.0149860  49.9691660  70.0208470  23.5529700
  49.8092800  69.7311410  24.4511530  49.8038370  69.2448600  23.0174930
  42.4480040  69.8007000  25.3301320  42.2722520  68.8842540  25.1169120
  41.5935780  70.1594290  25.5699120  49.2367720  69.1558740  26.1876190
  49.6924670  68.3748120  26.5014810  49.5760240  69.8665560  26.7317370
  36.9870270  64.9275200  33.3466930  37.1501310  64.4580560  32.5286300
  37.4522720  64.4198760  34.0115770  36.4230060  54.4142240  28.9632880
  36.1343110  54.9845100  29.6757860  37.1675820  53.9346690  29.3264110
  36.6100290  58.3562360  20.1735600  36.5274960  59.2993120  20.3150590
  36.2583350  58.2137270  19.2947950  40.2600800  56.9727880  28.2000160
  39.9200850  57.4503110  28.9567210  39.4978120  56.5193000  27.8401260
  37.5746880  55.8946860  27.1164830  37.2893800  55.5302530  27.9543450
  37.5125740  55.1627320  26.5027970  41.0287550  64.3972800  23.9022420
  40.2549810  63.8570420  23.7421140  41.7582180  63.8779410  23.5640180
  37.0677540  61.0305810  21.0761530  37.9372390  61.3130610  21.3597450
  36.5767860  61.8441680  20.9610340  37.4348790  70.2433190  21.6423160
  37.7946430  70.8422530  20.9880430  37.2941130  70.7893080  22.4158190
  43.4517410  67.6264390  22.4596830  43.4427510  68.3594080  21.8441340
  42.5315770  67.3795970  22.5523790  39.0524050  62.8479280  23.2043590
  38.4452000  63.5878180  23.2138890  39.5273400  62.9378640  22.3781790
  46.4377010  67.6892630  21.1222020  46.5388990  67.4856620  20.1924000
  45.5378750  67.4350910  21.3269800  45.0795120  70.2078950  25.8169690
  45.3336620  70.1700340  24.8949060  44.1307600  70.0812280  25.8097940
  41.0629340  62.8090430  20.9532160  41.8292610  62.6971790  21.5157590
  41.1404030  62.1128400  20.3008930  39.7576100  60.2415500  21.6365050
  39.8379690  59.2943010  21.7482450  40.6495850  60.5722380  21.7425710
  53.0873280  68.2979680  29.0682460  53.2120700  69.1210850  29.5406270
  53.9538840  68.0870410  28.7206610  40.5590810  70.3910890  28.7399590
  41.2953290  69.8426350  29.0108160  40.9431730  71.2566900  28.6005580
  37.4436290  66.4584460  24.6141100  36.5176070  66.7005600  24.6046510
  37.9092720  67.2858720  24.4925850  43.6693120  69.5641200  20.5625160
  44.4621730  69.8530030  20.1106950  43.1497470  69.1333370  19.8837640
  49.8314090  69.4117120  36.4869990  50.7835840  69.3275140  36.4370230
  49.6842310  70.0758830  37.1603780  52.7223290  68.7911330  21.9861900
  52.4364800  68.3776470  21.1716080  52.5242840  69.7199040  21.8662420
  44.1870520  64.7844610  20.4267510  44.0821160  64.1696960  21.1528890
  44.0194740  64.2610500  19.6430520  40.7890070  55.9789410  19.8610840
  41.0915970  55.9856840  18.9529990  41.5284660  55.6287270  20.3578500
  46.1724040  69.9104780  22.4653640  47.0674830  70.2489750  22.4872400
  46.2041670  69.1884190  21.8377920  39.8120200  65.2831830  20.6940640
  40.2495070  65.8261500  21.3498220  40.2967930  64.4578780  20.7036980
  37.0266000  68.0720860  28.1460900  37.3569010  67.2041920  27.9139540
  37.4557000  68.2779380  28.9765860  41.6227920  66.4029870  25.8062870
  41.3223460  66.2794840  26.7066780  41.5165410  65.5438460  25.3978600
  37.5156210  68.9391450  30.8842530  37.0787200  69.1192250  31.7166680
  38.0833890  69.6966070  30.7424250  54.3919840  66.1826270  20.5089550
  53.5612800  66.2502920  20.9796780  54.5691670  67.0730390  20.2056410
  37.3480640  61.4511680  27.2431410  36.6929480  61.1823320  26.5991110
  38.1858590  61.3416160  26.7933390  38.3856570  61.8364250  31.7834750
  38.7529610  61.7491650  32.6630770  37.8167390  61.0730800  31.6841610
  36.5618720  58.6610610  23.1856740  35.6582800  58.9240810  23.0108400
  37.0459340  58.9321780  22.4056700  39.1045930  57.7176150  21.0951120
  39.8137630  57.2959370  20.6098400  38.3885870  57.7851380  20.4634470
  38.7520090  53.7715480  20.1353770  39.4748220  54.3124420  20.4534990
  39.0244610  53.4978900  19.2595310  38.4412280  53.0221670  30.0376390
  39.0888470  52.4719050  29.5971550  38.8614120  53.2764820  30.8592200
  51.8946080  69.9179030  26.7964270  52.4905150  69.5963600  26.1198690
  52.1524230  69.4450850  27.5877540  52.4458290  70.5674330  30.6262000
  51.9861260  71.3190140  30.2520020  51.8170750  69.8480800  30.5676800
  37.5538910  69.9791960  26.2257480  37.3860950  69.3462640  26.9239370
  36.6873420  70.1851360  25.8751670  38.1766930  53.8108740  23.7289340
  38.9346290  53.9237620  23.1553370  37.7144100  54.6477940  23.6832770
  39.1601610  68.6725190  23.6707620  38.6349230  69.0533220  22.9669580
  39.0846190  69.2975960  24.3917330  40.5492080  54.3372790  22.2691310
  41.0784840  53.5502590  22.1399260  41.1820400  55.0163980  22.5026840
  45.6821870  70.6887160  37.9947310  46.6089180  70.4531430  38.0383270
  45.6672300  71.5159160  37.5133340  53.9166930  70.2312730  24.9921560
  54.0919120  69.5450470  24.3482480  53.2188500  70.7559780  24.5998230
  41.7594580  70.6207570  22.5456870  42.4913400  70.3366850  21.9980760
  42.0188250  70.3820850  23.4356250  40.9209370  66.7372300  22.5503200
  40.2918250  67.2057400  23.0989030  41.0357200  65.8921520  22.9849390
  48.3759090  60.7877960   8.7004400  48.2953140  59.8732570   8.4296110
  47.9623510  61.2845030   7.9944110  46.5077130  62.5656980  10.5813670
  45.7319230  62.0857420  10.8712240  47.1590060  61.8862630  10.4069830
  40.5242960  62.8776790  11.4589430  39.6927840  62.6225500  11.8585940
  41.1323940  62.9487560  12.1947350  50.5284560  66.9717170   9.3612800
  50.0666090  66.2004410   9.6899970  51.3410110  66.9983240   9.8665250
  40.5044220  66.9116880  11.6547450  40.8072260  66.0214620  11.4757670
  41.2487810  67.4687100  11.4269700  38.9334910  57.8378680   5.2431820
  38.0451610  58.1794650   5.1411700  39.2176100  57.6379000   4.3512650
  36.8967920  60.4384330  11.1271520  37.4684030  59.6706530  11.1275160
  36.8969460  60.7373090  10.2178130  46.7547870  69.2575180   8.9816790
  46.1359310  69.7132680   8.4111230  47.6099650  69.4126640   8.5806490
  45.9486120  65.2414170  10.5883830  45.8794400  64.3004110  10.4272960
  46.7105980  65.3315580  11.1606400  38.1392790  55.8468690  12.9140450
  37.9595630  54.9494440  13.1943210  37.7372870  56.3940560  13.5887400
  46.9791290  58.0484550  10.8152760  47.3556110  57.1756430  10.7026430
  46.8810800  58.3843250   9.9243200  41.1096300  56.4210180   6.2770200
  41.2163050  57.3213910   6.5838960  40.1988660  56.3728150   5.9864850
  50.7615410  55.5434990   7.7481100  51.5825030  55.0531560   7.7906580
  50.7949490  56.1332650   8.5012940  38.7579460  58.3429190  11.5222790
  39.4389570  58.6067560  12.1410190  38.4427510  57.5030060  11.8560800
  42.9504030  59.3896550  10.6095380  43.4582250  59.8877520  11.2500400
  43.4817270  58.6131750  10.4334740  41.2340130  54.0295110  14.8758800
  41.2358570  54.5467500  14.0704700  40.4044440  53.5525290  14.8528730
  47.6211220  64.1414420   6.3748700  47.0028490  64.6063870   5.8111420
  48.1334470  64.8341900   6.7918210  42.4842980  63.6690290  13.0532300
  42.1512360  64.2959210  13.6953370  42.6609660  64.1952170  12.2733970
  50.9976890  57.4835370  10.5208640  50.2932460  57.7720260  11.1011750
  51.3589050  58.2935480  10.1608200  40.9155460  55.7405070  12.8829250
  41.2572270  56.5847120  12.5883120  39.9771270  55.8888810  12.9994590
  41.6962080  65.6371090  14.8681480  42.3136080  66.3122170  14.5865930
  40.8355200  66.0459070  14.7768980  36.9894420  64.8270950   3.7488330
  36.6122400  65.3158050   3.0173230  37.2467490  65.4996230   4.3794860
  52.6139670  67.1010500  12.7836120  51.9303190  67.7709610  12.7752790
  53.1533960  67.2991150  12.0180980  54.0663810  56.9290160  10.9117850
  53.1188720  56.9629140  11.0433280  54.3913800  57.7429110  11.2967210
  44.5983350  53.2287340   9.2073840  44.9058330  52.6734230   8.4909340
  43.6684050  53.3631800   9.0246830  50.1498410  68.9454630  11.4981300
  50.1625570  68.5416920  10.6303560  49.5973630  69.7201920  11.3942730
  51.4443830  65.6670850   6.5871470  51.3340160  64.7245180   6.7120890
  51.4412080  66.0286490   7.4734230  49.5483850  63.8484470  12.8263910
  49.9652640  63.6344580  11.9917370  50.2723670  64.1057260  13.3972530
  46.9864110  61.2936170   5.9433960  46.0593390  61.2273550   6.1722430
  47.1388930  62.2316300   5.8289200  46.9733190  57.5653170   2.9401120
  46.0336860  57.7267130   3.0253580  47.2916450  58.2838850   2.3937110
  53.4945950  62.2471690  12.9180150  52.6664580  62.3164780  12.4430280
  54.0896430  62.8326000  12.4495980  51.0161400  62.8556470   6.4469210
  50.3973820  62.5176020   5.7995510  50.9985850  62.2116230   7.1548400
  42.5920750  61.8200910   8.7253690  42.1877750  61.1078160   8.2299590
  42.6783870  61.4754150   9.6141730  43.0602450  65.5068470  10.8892900
  42.7630740  64.9013940  10.2100680  44.0102270  65.5445780  10.7782260
  41.3049370  58.5944120  12.5052730  41.8563960  58.7039460  11.7305980
  41.8192880  58.9681720  13.2207960  51.1488060  69.0800340  14.5516000
  50.6718620  69.8872530  14.3588610  50.4649850  68.4278670  14.7042210
  42.1520880  65.2450160  17.5400700  41.2549410  65.4690130  17.7874100
  42.1773750  65.3685100  16.5912100  49.1926100  62.0943280   3.4541960
  49.6319380  61.2565710   3.3079780  49.9054520  62.7272680   3.5406100
  40.9792100  62.1163480  16.1158070  40.8399870  62.9886280  16.4845470
  40.0973460  61.7736290  15.9706010  47.3021480  67.0339350   7.4223200
  47.7417390  67.7763680   7.0078590  47.2408370  67.2765920   8.3462160
  42.7772450  68.0585180  18.3243220  42.7487880  68.4628130  17.4571650
  42.6137420  67.1295540  18.1614820  52.7743240  53.3486090   1.7683000
  52.4615900  53.4412920   2.6682070  53.5355710  53.9267120   1.7180430
  39.2925380  60.7145890   6.2260340  39.1722980  61.4407980   5.6141610
  38.9826270  59.9448800   5.7488250  54.7287270  68.8412280  19.6207390
  55.2046990  69.3195170  20.2996470  55.3494430  68.7729770  18.8952890
  36.9310750  63.8861030  12.0328980  37.0091170  64.0209800  11.0884700
  37.5452430  63.1776920  12.2257100  38.1758380  65.5861220   8.4435160
  37.7686460  65.7275810   7.5888760  39.0671390  65.3021380   8.2406370
  54.1320520  66.0325130  16.7807400  54.2583580  65.7937010  15.8624580
  54.1741900  65.2009670  17.2529480  47.9937260  69.7353130  15.3502210
  48.5081930  69.6461140  16.1524640  47.1506340  70.0812830  15.6430120
  49.9691660  70.0208470   4.7786210  49.8092800  69.7311410   5.6768040
  49.8038370  69.2448600   4.2431440  42.4480040  69.8007000   6.5557830
  42.2722520  68.8842540   6.3425630  41.5935780  70.1594290   6.7955630
  49.6717790  67.5296030   3.3384210  48.9782950  67.5273320   2.6786490
  50.4140650  67.1055350   2.9078380  49.2367720  69.1558740   7.4132700
  49.6924670  68.3748120   7.7271320  49.5760240  69.8665560   7.9573880
  36.9870270  64.9275200  14.5723440  37.1501310  64.4580560  13.7542810
  37.4522720  64.4198760  15.2372280  41.7589040  54.0580960   9.6084010
  41.3157190  54.8390500   9.2768530  42.3174030  54.3810850  10.3154950
  44.8747860  53.6791660   4.4889840  44.2502040  53.6751530   5.2143150
  44.7877980  52.8122620   4.0925810  41.5503260  59.1814530   7.3365260
  41.3244180  58.9651700   8.2411880  40.7695790  59.6142990   6.9911230
  48.7801020  59.1877900   5.9355910  48.1809910  59.9113700   5.7519530
  49.3280630  59.1254680   5.1532360  47.3865890  57.8241440   7.9659190
  47.7795460  58.1413640   7.1527880  47.7482740  56.9453320   8.0803710
  39.1213010  56.4913780  16.1559310  38.7276400  57.3388990  16.3632090
  38.4331410  55.8540150  16.3467950  36.4230060  54.4142240  10.1889390
  36.1343110  54.9845100  10.9014370  37.1675820  53.9346690  10.5520620
  44.4098420  57.0901390  10.4662460  44.4134480  56.6491340   9.6167000
  45.3049540  57.4118720  10.5734280  40.2600800  56.9727880   9.4256670
  39.9200850  57.4503110  10.1823720  39.4978120  56.5193000   9.0657770
  44.4718570  58.0913470   3.4569220  44.5931390  58.0499950   4.4055040
  44.0867080  58.9537620   3.3015950  43.4840070  60.4014610   2.8552520
  42.9156970  59.9532860   2.2288430  44.1929070  60.7607390   2.3217670
  38.5609250  64.3026630  16.7319250  38.1764040  63.6620300  17.3302210
  38.8721440  65.0062750  17.3013980  44.7106390  61.1503170  12.2127870
  45.0776520  60.6761740  12.9589210  44.5211450  62.0244740  12.5536210
  37.5746880  55.8946860   8.3421340  37.2893800  55.5302530   9.1799960
  37.5125740  55.1627320   7.7284480  42.5005760  60.1911810  14.5312080
  42.1962830  61.0703790  14.7562440  43.4552220  60.2511600  14.5669520
  41.0287550  64.3972800   5.1278930  40.2549810  63.8570420   4.9677650
  41.7582180  63.8779410   4.7896690  51.7875530  63.3938160  10.9205320
  52.5074650  63.8893450  10.5301430  51.5857350  62.7156050  10.2759190
  47.2485470  54.7876120   5.0634710  46.4350080  54.2889290   4.9880020
  47.0547420  55.6274370   4.6471060  47.1694330  63.4647220  16.8074320
  47.1031640  62.5442890  16.5531910  46.5399470  63.5622660  17.5218960
  49.9633860  59.1595770   3.3596870  50.8513480  59.4713000   3.1848210
  49.9338950  58.2868020   2.9677450  41.0724950  64.0653180   8.7657740
  41.5903620  63.2621440   8.7114630  40.6208970  64.0032320   9.6074570
  45.9594450  65.3319460   4.0385040  46.3010150  66.0761690   3.5428360
  45.1307160  65.6450580   4.4009870  38.5569490  61.0314550  15.6783440
  38.1984430  61.6968400  16.2656780  38.2624050  60.1998100  16.0496060
  41.7582610  61.4898790  18.5622990  41.4582750  61.6355970  17.6650810
  42.5293850  60.9304080  18.4696380  47.1011060  66.2867790  16.5578120
  47.1155600  65.3548750  16.3397030  46.3936160  66.3727550  17.1967890
  52.2348130  60.4707610   2.8276730  52.1511850  60.9021830   1.9773170
  52.9542320  60.9305960   3.2603550  53.2635380  67.3249870   5.5558860
  52.6211540  66.6705490   5.8302580  52.8766040  67.7304960   4.7799530
  48.8421860  64.6535300   9.4030550  49.1945680  64.0563430   8.7431920
  47.9584190  64.3279530   9.5738800  44.9285140  65.4132990   6.8100960
  45.6156270  65.9602200   7.1908550  44.1417560  65.9573720   6.8450570
  37.0677540  61.0305810   2.3018040  37.9372390  61.3130610   2.5853960
  36.5767860  61.8441680   2.1866850  44.2312350  62.4179020   6.4226320
  44.6875130  63.2284270   6.6486510  43.8800560  62.1002160   7.2544810
  46.5344960  67.9285360  13.6518620  47.1787180  68.1344740  14.3292040
  46.8974400  67.1673760  13.1989470  40.1324130  52.7616670   6.8948840
  40.0038760  52.7534570   7.8433760  39.3086150  53.0999760   6.5439850
  47.8077040  65.9317710  12.3696070  48.4499270  65.2310870  12.4828240
  48.3326390  66.7116150  12.1892960  49.5814660  66.7312610  15.5732130
  49.9170900  67.3179300  16.2510050  48.6615000  66.6005320  15.8029920
  37.4348790  70.2433190   2.8679670  37.7946430  70.8422530   2.2136940
  37.2941130  70.7893080   3.6414700  37.1318060  54.5207790  16.3555540
  36.4176580  54.7204710  16.9608150  37.5513100  53.7447360  16.7270340
  51.2349010  64.1338270   3.7549370  50.9470710  64.5950960   4.5427250
  52.0301180  63.6736040   4.0233590  37.4190650  68.5088050  17.3422070
  37.5281770  67.5682790  17.2017460  36.7671210  68.7742800  16.6935800
  45.4103240  66.7803940  18.7420190  45.0900110  66.0613180  19.2865880
  44.7361600  67.4559010  18.8156250  43.4517410  67.6264390   3.6853340
  43.4427510  68.3594080   3.0697850  42.5315770  67.3795970   3.7780300
  39.0524050  62.8479280   4.4300100  38.4452000  63.5878180   4.4395400
  39.5273400  62.9378640   3.6038300  51.9918870  55.9687040   4.9144550
  51.3632030  56.0732710   4.2002780  51.4970790  56.1883820   5.7038430
  43.9602900  58.2472990   6.3302430  43.2519050  58.7159330   6.7716040
  44.2447380  57.5895000   6.9647620  47.9918330  54.9723650   7.7698220
  47.8686110  54.9909780   6.8207730  48.9402890  55.0202590   7.8896620
  45.0795120  70.2078950   7.0426200  45.3336620  70.1700340   6.1205570
  44.1307600  70.0812280   7.0354450  42.1637920  56.5558070   3.7053140
  43.0128450  56.9928220   3.6393330  41.7969190  56.8678330   4.5325200
  51.0847700  61.1270830   8.6184710  50.1437840  61.1421060   8.7932400
  51.3991770  60.3406790   9.0645010  39.7576100  60.2415500   2.8621560
  39.8379690  59.2943010   2.9738960  40.6495850  60.5722380   2.9682220
  53.0873280  68.2979680  10.2938970  53.2120700  69.1210850  10.7662780
  53.9538840  68.0870410   9.9463120  40.5590810  70.3910890   9.9656100
  41.2953290  69.8426350  10.2364670  40.9431730  71.2566900   9.8262090
  37.4436290  66.4584460   5.8397610  36.5176070  66.7005600   5.8303020
  37.9092720  67.2858720   5.7182360  39.5649090  69.5756960  19.1541680
  40.3661820  69.8969010  19.5677080  39.0500910  69.2152540  19.8761590
  49.8314090  69.4117120  17.7126500  50.7835840  69.3275140  17.6626740
  49.6842310  70.0758830  18.3860290  52.7223290  68.7911330   3.2118410
  52.4364800  68.3776470   2.3972590  52.5242840  69.7199040   3.0918930
  37.2846900  62.0630420  18.0977730  37.7885920  61.4837700  18.6693960
  36.5454320  62.3470650  18.6354100  44.3384840  63.4701410  17.6313250
  43.5730510  64.0386410  17.5467920  44.5200800  63.1777620  16.7381480
  47.4273250  63.8464640   2.2566010  46.8783350  64.2933940   2.9008750
  48.0492510  63.3413890   2.7803680  51.4808190  65.2006740  18.1888270
  52.2217660  65.5382500  17.6855730  50.7180870  65.3698800  17.6358040
  39.3169980  60.2060010  18.9927800  39.3575320  59.9073880  19.9013030
  40.1715480  60.6067620  18.8335320  43.0948370  62.8055560   4.1531310
  43.5164790  62.6395430   4.9962700  43.2199210  61.9955790   3.6586450
  41.2575790  58.7852110  16.9602290  40.7272250  58.2943060  16.3325630
  41.9263860  59.2136310  16.4260220  50.1553850  63.2521570  16.7243480
  50.5694870  63.4066650  17.5733900  49.2204850  63.3776790  16.8869260
  41.7448090  55.7514480  17.0399580  41.6504960  55.1335230  16.3150450
  41.1645480  56.4780770  16.8129490  44.9169080  63.2042050  14.6939410
  45.3357190  64.0474780  14.5215650  43.9977710  63.3414090  14.4646190
  42.7676500  69.5095060  15.8097140  42.2297590  70.2341120  15.4905840
  43.0210460  69.0325400  15.0194480  49.4695580  53.6897020   3.6276350
  49.7497870  52.8464920   3.9835770  48.6961310  53.9220130   4.1415100
  45.6238710  70.7446270  16.0683790  45.5497410  71.6481410  16.3756160
  44.7217550  70.4258170  16.0405860  46.1724040  69.9104780   3.6910150
  47.0674830  70.2489750   3.7128910  46.2041670  69.1884190   3.0634430
  39.8120200  65.2831830   1.9197150  40.2495070  65.8261500   2.5754730
  40.2967930  64.4578780   1.9293490  37.0266000  68.0720860   9.3717410
  37.3569010  67.2041920   9.1396050  37.4557000  68.2779380  10.2022370
  41.6227920  66.4029870   7.0319380  41.3223460  66.2794840   7.9323290
  41.5165410  65.5438460   6.6235110  37.5156210  68.9391450  12.1099040
  37.0787200  69.1192250  12.9423190  38.0833890  69.6966070  11.9680760
  53.1518390  68.4408450  16.3976350  52.5520380  68.5001010  15.6540270
  53.2812290  67.5013430  16.5273200  53.8476300  62.9273750   4.2380260
  54.6095210  63.4970400   4.3439950  53.8630670  62.3600950   5.0088570
  37.3480640  61.4511680   8.4687920  36.6929480  61.1823320   7.8247620
  38.1858590  61.3416160   8.0189900  54.8536270  63.7823850   9.0822190
  55.2245100  62.9991170   8.6758160  55.4938200  64.4712950   8.9039490
  51.8370030  65.1660430  14.4952510  51.0229870  65.5957590  14.7578300
  52.2444230  65.7778840  13.8821560  50.2971080  56.2452970   2.6906410
  50.7155960  56.0583950   1.8503070  49.9907140  55.3932020   3.0009340
  53.7960810  61.1577110   6.3882210  53.4204410  60.3905040   5.9563500
  53.0663930  61.5399810   6.8757140  38.3856570  61.8364250  13.0091260
  38.7529610  61.7491650  13.8887280  37.8167390  61.0730800  12.9098120
  37.9372570  58.7473340  16.9149680  37.0428620  58.7140100  17.2543390
  38.4770120  58.9460130  17.6800930  36.5618720  58.6610610   4.4113250
  35.6582800  58.9240810   4.2364910  37.0459340  58.9321780   3.6313210
  53.0711770  59.3834600   9.6889450  53.5949250  58.8897250   9.0579620
  53.6571190  59.5184960  10.4337020  39.1045930  57.7176150   2.3207630
  39.8137630  57.2959370   1.8354910  38.3885870  57.7851380   1.6890980
  52.5611740  58.6407950   5.6281860  53.0570860  58.4078820   6.4130740
  52.3627810  57.8019790   5.2119500  38.4412280  53.0221670  11.2632900
  39.0888470  52.4719050  10.8228060  38.8614120  53.2764820  12.0848710
  53.9898900  57.2768900   8.1619540  53.8798180  57.1224940   9.1001810
  54.7506490  56.7489840   7.9194950  54.9527660  55.8787480   4.0282390
  54.1579160  55.8132600   4.5575300  55.1570940  56.8138120   4.0167740
  51.8946080  69.9179030   8.0220780  52.4905150  69.5963600   7.3455200
  52.1524230  69.4450850   8.8134050  38.1944280  53.1777340  14.0058220
  37.8459100  53.6341160  14.7716400  37.8631980  52.2834470  14.0880650
  39.8008650  66.3496940  18.1711410  39.7578280  65.9789850  19.0525870
  39.9319660  67.2874510  18.3113230  43.5014680  67.9056530  13.7721130
  43.2606040  68.1731090  12.8851650  44.4417320  68.0762260  13.8271990
  54.7618840  69.9250910  14.5731770  54.2677120  70.3219780  13.8558900
  54.1532130  69.3000120  14.9669050  38.8664920  52.7053540  17.2808990
  39.4147910  52.5241590  16.5175100  38.9320230  51.9147650  17.8165300
  39.6396680  69.2959190  15.2909190  39.0457000  69.1643890  16.0299230
  39.6320520  68.4597330  14.8251290  52.4458290  70.5674330  11.8518510
  51.9861260  71.3190140  11.4776530  51.8170750  69.8480800  11.7933310
  39.2708910  66.6617570  14.2417230  38.5442970  66.0422860  14.1743180
  39.3318060  67.0558180  13.3715310  42.8754010  68.8762570  11.0266640
  43.3919030  68.2649930  10.5014900  43.5251390  69.3791350  11.5177650
  45.6149510  69.7671060  11.8535620  45.9027320  69.5125360  10.9768630
  46.1272730  69.2148420  12.4441190  46.8326520  53.5061260  12.4332130
  46.0498310  53.9806760  12.7128890  46.5389450  52.6016090  12.3245310
  53.2486160  53.8399600   8.4890040  53.1874560  52.8960820   8.3421060
  54.0278190  53.9479690   9.0343500  37.5538910  69.9791960   7.4513990
  37.3860950  69.3462640   8.1495880  36.6873420  70.1851360   7.1008180
  38.1766930  53.8108740   4.9545850  38.9346290  53.9237620   4.3809880
  37.7144100  54.6477940   4.9089280  44.7180740  55.9248010   7.9448160
  43.9055250  55.5504900   7.6044040  45.2222380  55.1693090   8.2469350
  49.2205720  52.5890460   9.1831230  49.8235090  53.1610670   9.6579750
  48.4798710  53.1529900   8.9605130  52.3640320  52.9912020   4.4571510
  52.5590950  53.8895470   4.7238940  51.5770190  52.7599100   4.9504460
  39.1601610  68.6725190   4.8964130  38.6349230  69.0533220   4.1926090
  39.0846190  69.2975960   5.6173840  40.5492080  54.3372790   3.4947820
  41.0784840  53.5502590   3.3655770  41.1820400  55.0163980   3.7283350
  42.7429920  54.0747930   6.5493210  42.1132660  53.3735240   6.7163340
  42.2035060  54.8352060   6.3326370  45.6821870  70.6887160  19.2203820
  46.6089180  70.4531430  19.2639780  45.6672300  71.5159160  18.7389850
  53.9166930  70.2312730   6.2178070  54.0919120  69.5450470   5.5738990
  53.2188500  70.7559780   5.8254740  42.8685480  53.3531910  18.9845700
  42.5869750  53.8565510  18.2206520  43.2505180  52.5553660  18.6187830
  41.7594580  70.6207570   3.7713380  42.4913400  70.3366850   3.2237270
  42.0188250  70.3820850   4.6612760  40.9209370  66.7372300   3.7759710
  40.2918250  67.2057400   4.3245540  41.0357200  65.8921520   4.2105900
  52.2499430  69.9157020  19.0444860  53.0424750  69.4206250  18.8370820
  52.5432580  70.5947160  19.6520470  48.3759090  42.0134470  83.7978360
  48.2953140  41.0989080  83.5270070  47.9623510  42.5101540  83.0918070
  46.5077130  43.7913490  85.6787630  45.7319230  43.3113930  85.9686200
  47.1590060  43.1119140  85.5043790  40.5242960  44.1033300  86.5563390
  39.6927840  43.8482010  86.9559900  41.1323940  44.1744070  87.2921310
  50.5284560  48.1973680  84.4586760  50.0666090  47.4260920  84.7873930
  51.3410110  48.2239750  84.9639210  40.5044220  48.1373390  86.7521410
  40.8072260  47.2471130  86.5731630  41.2487810  48.6943610  86.5243660
  38.9334910  39.0635190  80.3405780  38.0451610  39.4051160  80.2385660
  39.2176100  38.8635510  79.4486610  36.8967920  41.6640840  86.2245480
  37.4684030  40.8963040  86.2249120  36.8969460  41.9629600  85.3152090
  46.7547870  50.4831690  84.0790750  46.1359310  50.9389190  83.5085190
  47.6099650  50.6383150  83.6780450  45.9486120  46.4670680  85.6857790
  45.8794400  45.5260620  85.5246920  46.7105980  46.5572090  86.2580360
  38.1392790  37.0725200  88.0114410  37.9595630  36.1750950  88.2917170
  37.7372870  37.6197070  88.6861360  46.9791290  39.2741060  85.9126720
  47.3556110  38.4012940  85.8000390  46.8810800  39.6099760  85.0217160
  41.1096300  37.6466690  81.3744160  41.2163050  38.5470420  81.6812920
  40.1988660  37.5984660  81.0838810  50.7615410  36.7691500  82.8455060
  51.5825030  36.2788070  82.8880540  50.7949490  37.3589160  83.5986900
  38.7579460  39.5685700  86.6196750  39.4389570  39.8324070  87.2384150
  38.4427510  38.7286570  86.9534760  42.9504030  40.6153060  85.7069340
  43.4582250  41.1134030  86.3474360  43.4817270  39.8388260  85.5308700
  55.0514960  38.7858250  89.4098690  54.3467130  39.1739960  88.8913800
  55.3172880  39.4808540  90.0119620  41.2340130  35.2551620  89.9732760
  41.2358570  35.7724010  89.1678660  40.4044440  34.7781800  89.9502690
  47.6211220  45.3670930  81.4722660  47.0028490  45.8320380  80.9085380
  48.1334470  46.0598410  81.8892170  42.4842980  44.8946800  88.1506260
  42.1512360  45.5215720  88.7927330  42.6609660  45.4208680  87.3707930
  50.9976890  38.7091880  85.6182600  50.2932460  38.9976770  86.1985710
  51.3589050  39.5191990  85.2582160  40.9155460  36.9661580  87.9803210
  41.2572270  37.8103630  87.6857080  39.9771270  37.1145320  88.0968550
  41.6962080  46.8627600  89.9655440  42.3136080  47.5378680  89.6839890
  40.8355200  47.2715580  89.8742940  52.6139670  48.3267010  87.8810080
  51.9303190  48.9966120  87.8726750  53.1533960  48.5247660  87.1154940
  54.0663810  38.1546670  86.0091810  53.1188720  38.1885650  86.1407240
  54.3913800  38.9685620  86.3941170  44.5983350  34.4543850  84.3047800
  44.9058330  33.8990740  83.5883300  43.6684050  34.5888310  84.1220790
  50.1498410  50.1711140  86.5955260  50.1625570  49.7673430  85.7277520
  49.5973630  50.9458430  86.4916690  51.4443830  46.8927360  81.6845430
  51.3340160  45.9501690  81.8094850  51.4412080  47.2543000  82.5708190
  49.5483850  45.0740980  87.9237870  49.9652640  44.8601090  87.0891330
  50.2723670  45.3313770  88.4946490  46.9864110  42.5192680  81.0407920
  46.0593390  42.4530060  81.2696390  47.1388930  43.4572810  80.9263160
  53.4945950  43.4728200  88.0154110  52.6664580  43.5421290  87.5404240
  54.0896430  44.0582510  87.5469940  51.0161400  44.0812980  81.5443170
  50.3973820  43.7432530  80.8969470  50.9985850  43.4372740  82.2522360
  50.4587960  40.2597520  88.9608980  50.0459140  41.0851230  89.2148970
  49.7263910  39.6742560  88.7685340  42.5920750  43.0457420  83.8227650
  42.1877750  42.3334670  83.3273550  42.6783870  42.7010660  84.7115690
  43.0602450  46.7324980  85.9866860  42.7630740  46.1270450  85.3074640
  44.0102270  46.7702290  85.8756220  41.3049370  39.8200630  87.6026690
  41.8563960  39.9295970  86.8279940  41.8192880  40.1938230  88.3181920
  51.1488060  50.3056850  89.6489960  50.6718620  51.1129040  89.4562570
  50.4649850  49.6535180  89.8016170  42.1520880  46.4706670  92.6374660
  41.2549410  46.6946640  92.8848060  42.1773750  46.5941610  91.6886060
  49.1926100  43.3199790  78.5515920  49.6319380  42.4822220  78.4053740
  49.9054520  43.9529190  78.6380060  40.9792100  43.3419990  91.2132030
  40.8399870  44.2142790  91.5819430  40.0973460  42.9992800  91.0679970
  47.3021480  48.2595860  82.5197160  47.7417390  49.0020190  82.1052550
  47.2408370  48.5022430  83.4436120  42.7772450  49.2841690  93.4217180
  42.7487880  49.6884640  92.5545610  42.6137420  48.3552050  93.2588780
  52.7743240  34.5742600  76.8656960  52.4615900  34.6669430  77.7656030
  53.5355710  35.1523630  76.8154390  36.9310750  45.1117540  87.1302940
  37.0091170  45.2466310  86.1858660  37.5452430  44.4033430  87.3231060
  38.1758380  46.8117730  83.5409120  37.7686460  46.9532320  82.6862720
  39.0671390  46.5277890  83.3380330  54.1320520  47.2581640  91.8781360
  54.2583580  47.0193520  90.9598540  54.1741900  46.4266180  92.3503440
  47.9937260  50.9609640  90.4476170  48.5081930  50.8717650  91.2498600
  47.1506340  51.3069340  90.7404080  49.9691660  51.2464980  79.8760170
  49.8092800  50.9567920  80.7742000  49.8038370  50.4705110  79.3405400
  49.6717790  48.7552540  78.4358170  48.9782950  48.7529830  77.7760450
  50.4140650  48.3311860  78.0052340  49.2367720  50.3815250  82.5106660
  49.6924670  49.6004630  82.8245280  49.5760240  51.0922070  83.0547840
  53.9844530  39.3114100  92.8431100  53.3688800  39.8193770  92.3146560
  53.6640950  38.4112430  92.7857040  36.9870270  46.1531710  89.6697400
  37.1501310  45.6837070  88.8516770  37.4522720  45.6455270  90.3346240
  41.7589040  35.2837470  84.7057970  41.3157190  36.0647010  84.3742490
  42.3174030  35.6067360  85.4128910  46.0458850  38.1505990  90.3093290
  45.5838220  38.3589010  91.1213230  45.6436960  37.3365340  90.0063960
  51.0463360  39.3714940  91.4389950  50.1956950  39.0720690  91.7599020
  50.8865150  39.6156950  90.5273770  48.1413070  40.8716690  93.5388740
  48.4666480  40.0380440  93.1990970  48.9293400  41.3945210  93.6867070
  44.8747860  34.9048170  79.5863800  44.2502040  34.9008040  80.3117110
  44.7877980  34.0379130  79.1899770  43.7964940  35.8284800  86.5647570
  44.0937270  36.7347630  86.4839590  44.3450500  35.3403580  85.9507140
  41.5503260  40.4071040  82.4339220  41.3244180  40.1908210  83.3385840
  40.7695790  40.8399500  82.0885190  48.7801020  40.4134410  81.0329870
  48.1809910  41.1370210  80.8493490  49.3280630  40.3511190  80.2506320
  43.9902470  41.3056620  93.0999490  43.8946070  40.3651350  92.9499890
  44.8334450  41.5271690  92.7047560  47.3865890  39.0497950  83.0633150
  47.7795460  39.3670150  82.2501840  47.7482740  38.1709830  83.1777670
  39.1213010  37.7170290  91.2533270  38.7276400  38.5645500  91.4606050
  38.4331410  37.0796660  91.4441910  36.4230060  35.6398750  85.2863350
  36.1343110  36.2101610  85.9988330  37.1675820  35.1603200  85.6494580
  47.9721030  41.6403700  87.1583930  47.2402150  42.1490510  87.5074030
  47.5745370  40.8233680  86.8572710  44.4098420  38.3157900  85.5636420
  44.4134480  37.8747850  84.7140960  45.3049540  38.6375230  85.6708240
  40.2600800  38.1984390  84.5230630  39.9200850  38.6759620  85.2797680
  39.4978120  37.7449510  84.1631730  48.4346940  37.0937380  86.5706870
  48.4519680  37.5446030  87.4148720  48.1862520  36.1943020  86.7840310
  51.8617690  34.5069560  92.4093250  52.1863460  33.7759220  92.9351230
  51.8974200  34.1883200  91.5074240  38.5609250  45.5283140  91.8293210
  38.1764040  44.8876810  92.4276170  38.8721440  46.2319260  92.3987940
  44.7106390  42.3759680  87.3101830  45.0776520  41.9018250  88.0563170
  44.5211450  43.2501250  87.6510170  37.5746880  37.1203370  83.4395300
  37.2893800  36.7559040  84.2773920  37.5125740  36.3883830  82.8258440
  42.5005760  41.4168320  89.6286040  42.1962830  42.2960300  89.8536400
  43.4552220  41.4768110  89.6643480  51.7875530  44.6194670  86.0179280
  52.5074650  45.1149960  85.6275390  51.5857350  43.9412560  85.3733150
  47.2485470  36.0132630  80.1608670  46.4350080  35.5145800  80.0853980
  47.0547420  36.8530880  79.7445020  47.1694330  44.6903730  91.9048280
  47.1031640  43.7699400  91.6505870  46.5399470  44.7879170  92.6192920
  49.9633860  40.3852280  78.4570830  50.8513480  40.6969510  78.2822170
  49.9338950  39.5124530  78.0651410  41.0724950  45.2909690  83.8631700
  41.5903620  44.4877950  83.8088590  40.6208970  45.2288830  84.7048530
  45.9594450  46.5575970  79.1359000  46.3010150  47.3018200  78.6402320
  45.1307160  46.8707090  79.4983830  38.5569490  42.2571060  90.7757400
  38.1984430  42.9224910  91.3630740  38.2624050  41.4254610  91.1470020
  41.7582610  42.7155300  93.6596950  41.4582750  42.8612480  92.7624770
  42.5293850  42.1560590  93.5670340  47.1011060  47.5124300  91.6552080
  47.1155600  46.5805260  91.4370990  46.3936160  47.5984060  92.2941850
  52.2348130  41.6964120  77.9250690  52.1511850  42.1278340  77.0747130
  52.9542320  42.1562470  78.3577510  53.3122270  44.1531640  91.0020660
  52.5870460  44.7460420  90.8050050  53.8397730  44.1455180  90.2034030
  53.2635380  48.5506380  80.6532820  52.6211540  47.8962000  80.9276540
  52.8766040  48.9561470  79.8773490  48.8421860  45.8791810  84.5004510
  49.1945680  45.2819940  83.8405880  47.9584190  45.5536040  84.6712760
  44.9285140  46.6389500  81.9074920  45.6156270  47.1858710  82.2882510
  44.1417560  47.1830230  81.9424530  44.2312350  43.6435530  81.5200280
  44.6875130  44.4540780  81.7460470  43.8800560  43.3258670  82.3518770
  46.5344960  49.1541870  88.7492580  47.1787180  49.3601250  89.4266000
  46.8974400  48.3930270  88.2963430  40.1324130  33.9873180  81.9922800
  40.0038760  33.9791080  82.9407720  39.3086150  34.3256270  81.6413810
  47.8077040  47.1574220  87.4670030  48.4499270  46.4567380  87.5802200
  48.3326390  47.9372660  87.2866920  51.6532760  47.4422840  77.1909170
  51.4270340  46.7253280  77.7833810  51.2628960  47.1935280  76.3530920
  49.5814660  47.9569120  90.6706090  49.9170900  48.5435810  91.3484010
  48.6615000  47.8261830  90.9003880  37.1318060  35.7464300  91.4529500
  36.4176580  35.9461220  92.0582110  37.5513100  34.9703870  91.8244300
  51.2349010  45.3594780  78.8523330  50.9470710  45.8207470  79.6401210
  52.0301180  44.8992550  79.1207550  37.4190650  49.7344560  92.4396030
  37.5281770  48.7939300  92.2991420  36.7671210  49.9999310  91.7909760
  48.6256840  38.2386610  89.2030950  48.9937660  37.4181820  89.5310520
  47.7655040  38.2988500  89.6186600  51.9918870  37.1943550  80.0118510
  51.3632030  37.2989220  79.2976740  51.4970790  37.4140330  80.8012390
  43.9602900  39.4729500  81.4276390  43.2519050  39.9415840  81.8690000
  44.2447380  38.8151510  82.0621580  45.5858830  40.8926200  89.4268920
  46.0844080  41.3672020  90.0920770  45.7281780  39.9689720  89.6338950
  47.9918330  36.1980160  82.8672180  47.8686110  36.2166290  81.9181690
  48.9402890  36.2459100  82.9870580  45.0795120  51.4335460  82.1400160
  45.3336620  51.3956850  81.2179530  44.1307600  51.3068790  82.1328410
  52.7925690  37.1094160  90.2697310  52.2899290  37.8499560  90.6091120
  53.6082350  37.4978160  89.9534100  51.0847700  42.3527340  83.7158670
  50.1437840  42.3677570  83.8906360  51.3991770  41.5663300  84.1618970
  53.0873280  49.5236190  85.3912930  53.2120700  50.3467360  85.8636740
  53.9538840  49.3126920  85.0437080  40.5590810  51.6167400  85.0630060
  41.2953290  51.0682860  85.3338630  40.9431730  52.4823410  84.9236050
  37.4436290  47.6840970  80.9371570  36.5176070  47.9262110  80.9276980
  37.9092720  48.5115230  80.8156320  49.8314090  50.6373630  92.8100460
  50.7835840  50.5531650  92.7600700  49.6842310  51.3015340  93.4834250
  52.7223290  50.0167840  78.3092370  52.4364800  49.6032980  77.4946550
  52.5242840  50.9455550  78.1892890  37.2846900  43.2886930  93.1951690
  37.7885920  42.7094210  93.7667920  36.5454320  43.5727160  93.7328060
  44.3384840  44.6957920  92.7287210  43.5730510  45.2642920  92.6441880
  44.5200800  44.4034130  91.8355440  51.4808190  46.4263250  93.2862230
  52.2217660  46.7639010  92.7829690  50.7180870  46.5955310  92.7332000
  41.2575790  40.0108620  92.0576250  40.7272250  39.5199570  91.4299590
  41.9263860  40.4392820  91.5234180  50.1553850  44.4778080  91.8217440
  50.5694870  44.6323160  92.6707860  49.2204850  44.6033300  91.9843220
  50.6276020  41.8174240  93.8256590  51.2096790  41.0626560  93.7377070
  50.8037790  42.3481680  93.0488070  41.7448090  36.9770990  92.1373540
  41.6504960  36.3591740  91.4124410  41.1645480  37.7037280  91.9103450
  44.5109530  35.5344230  89.1700930  44.0626830  35.5568490  88.3246480
  43.8774730  35.1363250  89.7671230  44.9169080  44.4298560  89.7913370
  45.3357190  45.2731290  89.6189610  43.9977710  44.5670600  89.5620150
  47.2532980  42.1614740  91.1751210  47.3729190  41.5655880  91.9146050
  48.1126980  42.1984430  90.7552510  49.5920880  42.7151930  89.7513720
  49.0656100  43.2394550  89.1478860  49.9352220  43.3479320  90.3823450
  42.7676500  50.7351570  90.9071100  42.2297590  51.4597630  90.5879800
  43.0210460  50.2581910  90.1168440  44.0201750  38.7036090  92.4327030
  44.6101440  38.3951940  93.1204850  43.2021990  38.2315840  92.5886930
  48.8395180  38.3201900  92.6660050  48.1510700  37.6583440  92.6010040
  49.5601200  37.8740170  93.1108510  49.4695580  34.9153530  78.7250310
  49.7497870  34.0721430  79.0809730  48.6961310  35.1476640  79.2389060
  45.6238710  51.9702780  91.1657750  45.5497410  52.8737920  91.4730120
  44.7217550  51.6514680  91.1379820  37.0266000  49.2977370  84.4691370
  37.3569010  48.4298430  84.2370010  37.4557000  49.5035890  85.2996330
  41.6227920  47.6286380  82.1293340  41.3223460  47.5051350  83.0297250
  41.5165410  46.7694970  81.7209070  37.5156210  50.1647960  87.2073000
  37.0787200  50.3448760  88.0397150  38.0833890  50.9222580  87.0654720
  53.1518390  49.6664960  91.4950310  52.5520380  49.7257520  90.7514230
  53.2812290  48.7269940  91.6247160  54.3919840  47.4082780  76.8320020
  53.5612800  47.4759430  77.3027250  54.5691670  48.2986900  76.5286880
  53.8476300  44.1530260  79.3354220  54.6095210  44.7226910  79.4413910
  53.8630670  43.5857460  80.1062530  37.3480640  42.6768190  83.5661880
  36.6929480  42.4079830  82.9221580  38.1858590  42.5672670  83.1163860
  54.8536270  45.0080360  84.1796150  55.2245100  44.2247680  83.7732120
  55.4938200  45.6969460  84.0013450  51.8370030  46.3916940  89.5926470
  51.0229870  46.8214100  89.8552260  52.2444230  47.0035350  88.9795520
  53.8995470  44.4464630  76.4926740  54.1744310  45.3543510  76.3645960
  53.7106210  44.3827160  77.4288730  50.2971080  37.4709480  77.7880370
  50.7155960  37.2840460  76.9477030  49.9907140  36.6188530  78.0983300
  53.7960810  42.3833620  81.4856170  53.4204410  41.6161550  81.0537460
  53.0663930  42.7656320  81.9731100  38.3856570  43.0620760  88.1065220
  38.7529610  42.9748160  88.9861240  37.8167390  42.2987310  88.0072080
  53.1860430  41.5305140  91.1195690  52.9546520  41.3017890  90.2193640
  53.4464980  42.4504690  91.0740580  37.9372570  39.9729850  92.0123640
  37.0428620  39.9396610  92.3517350  38.4770120  40.1716640  92.7774890
  53.0711770  40.6091110  84.7863410  53.5949250  40.1153760  84.1553580
  53.6571190  40.7441470  85.5310980  53.2501490  40.6930980  88.3082960
  52.3004200  40.6594520  88.4227950  53.4314500  41.6031090  88.0732730
  52.5611740  39.8664460  80.7255820  53.0570860  39.6335330  81.5104700
  52.3627810  39.0276300  80.3093460  38.4412280  34.2478180  86.3606860
  39.0888470  33.6975560  85.9202020  38.8614120  34.5021330  87.1822670
  53.9898900  38.5025410  83.2593500  53.8798180  38.3481450  84.1975770
  54.7506490  37.9746350  83.0168910  52.3364620  34.4419540  89.7176500
  52.9736840  35.0553680  90.0835690  52.4839510  34.4780200  88.7725730
  54.8789170  36.3333330  76.4999640  55.8038480  36.2014510  76.2917930
  54.8564960  36.4126150  77.4536090  54.9527660  37.1043990  79.1256350
  54.1579160  37.0389110  79.6549260  55.1570940  38.0394630  79.1141700
  51.8946080  51.1435540  83.1194740  52.4905150  50.8220110  82.4429160
  52.1524230  50.6707360  83.9108010  38.1944280  34.4033850  89.1032180
  37.8459100  34.8597670  89.8690360  37.8631980  33.5090980  89.1854610
  43.5014680  49.1313040  88.8695090  43.2606040  49.3987600  87.9825610
  44.4417320  49.3018770  88.9245950  45.7069100  35.5945730  92.6251600
  45.6457990  36.1867560  93.3747010  46.6469480  35.4871690  92.4801860
  48.3443660  35.2515790  92.2643890  48.9584070  35.5695080  91.6024970
  48.8893220  34.7664380  92.8839750  54.7618840  51.1507420  89.6705730
  54.2677120  51.5476290  88.9532860  54.1532130  50.5256630  90.0643010
  38.8664920  33.9310050  92.3782950  39.4147910  33.7498100  91.6149060
  38.9320230  33.1404160  92.9139260  39.6396680  50.5215700  90.3883150
  39.0457000  50.3900400  91.1273190  39.6320520  49.6853840  89.9225250
  49.0851700  33.8147930  88.5913180  48.2111540  34.1483040  88.3886110
  48.9762450  33.3421110  89.4165050  49.9923680  36.0218800  89.9754900
  49.6637040  35.2070560  89.5956630  50.9405980  35.9788610  89.8520590
  52.4458290  51.7930840  86.9492470  51.9861260  52.5446650  86.5750490
  51.8170750  51.0737310  86.8907270  39.2708910  47.8874080  89.3391190
  38.5442970  47.2679370  89.2717140  39.3318060  48.2814690  88.4689270
  42.8754010  50.1019080  86.1240600  43.3919030  49.4906440  85.5988860
  43.5251390  50.6047860  86.6151610  45.6149510  50.9927570  86.9509580
  45.9027320  50.7381870  86.0742590  46.1272730  50.4404930  87.5415150
  46.8326520  34.7317770  87.5306090  46.0498310  35.2063270  87.8102850
  46.5389450  33.8272600  87.4219270  51.3847590  35.4340870  85.5755180
  51.8255680  35.3785970  84.7276780  51.1155180  36.3498880  85.6465360
  53.2486160  35.0656110  83.5864000  53.1874560  34.1217330  83.4395020
  54.0278190  35.1736200  84.1317460  38.1766930  35.0365250  80.0519810
  38.9346290  35.1494130  79.4783840  37.7144100  35.8734450  80.0063240
  44.7180740  37.1504520  83.0422120  43.9055250  36.7761410  82.7018000
  45.2222380  36.3949600  83.3443310  49.2205720  33.8146970  84.2805190
  49.8235090  34.3867180  84.7553710  48.4798710  34.3786410  84.0579090
  52.3640320  34.2168530  79.5545470  52.5590950  35.1151980  79.8212900
  51.5770190  33.9855610  80.0478420  42.7429920  35.3004440  81.6467170
  42.1132660  34.5991750  81.8137300  42.2035060  36.0608570  81.4300330
  53.9166930  51.4569240  81.3152030  54.0919120  50.7706980  80.6712950
  53.2188500  51.9816290  80.9228700  54.7287270  50.0668790  75.9437860
  55.2046990  50.5451680  76.6226940  55.3494430  49.9986280  75.2183360
  36.4230060  35.6398750  66.5119860  36.1343110  36.2101610  67.2244840
  37.1675820  35.1603200  66.8751090  51.8617690  34.5069560  73.6349760
  52.1863460  33.7759220  74.1607740  51.8974200  34.1883200  72.7330750
  53.1518390  49.6664960  72.7206820  52.5520380  49.7257520  71.9770740
  53.2812290  48.7269940  72.8503670  51.6248500  36.7561570  75.1231900
  52.5018680  36.7644970  75.5065900  51.6369340  36.0192410  74.5124250
  38.4412280  34.2478180  67.5863370  39.0888470  33.6975560  67.1458530
  38.8614120  34.5021330  68.4079180  52.3364620  34.4419540  70.9433010
  52.9736840  35.0553680  71.3092200  52.4839510  34.4780200  69.9982240
  49.4700940  33.9942000  75.8856640  49.3566390  34.3136610  76.7808160
  50.2870680  34.3954510  75.5893920  52.2499430  51.1413530  75.3675330
  53.0424750  50.6462760  75.1601290  52.5432580  51.8203670  75.9750940
  42.9504030  40.6153060  48.1582360  43.4582250  41.1134030  48.7987380
  43.4817270  39.8388260  47.9821720  42.4842980  44.8946800  50.6019280
  42.1512360  45.5215720  51.2440350  42.6609660  45.4208680  49.8220950
  44.7106390  42.3759680  49.7614850  45.0776520  41.9018250  50.5076190
  44.5211450  43.2501250  50.1023190  41.6962080  46.8627600  33.6424970
  42.3136080  47.5378680  33.3609420  40.8355200  47.2715580  33.5512470
  36.9870270  46.1531710  33.3466930  37.1501310  45.6837070  32.5286300
  37.4522720  45.6455270  34.0115770  36.6100290  39.5818870  20.1735600
  36.5274960  40.5249630  20.3150590  36.2583350  39.4393780  19.2947950
  37.4348790  51.4689700  21.6423160  37.7946430  52.0679040  20.9880430
  37.2941130  52.0149590  22.4158190  43.4517410  48.8520900  22.4596830
  43.4427510  49.5850590  21.8441340  42.5315770  48.6052480  22.5523790
  46.4377010  48.9149140  21.1222020  46.5388990  48.7113130  20.1924000
  45.5378750  48.6607420  21.3269800  43.6693120  50.7897710  20.5625160
  44.4621730  51.0786540  20.1106950  43.1497470  50.3589880  19.8837640
  47.4273250  45.0721150  21.0309500  46.8783350  45.5190450  21.6752240
  48.0492510  44.5670400  21.5547170  40.7890070  37.2045920  19.8610840
  41.0915970  37.2113350  18.9529990  41.5284660  36.8543780  20.3578500
  39.8120200  46.5088340  20.6940640  40.2495070  47.0518010  21.3498220
  40.2967930  45.6835290  20.7036980  37.5156210  50.1647960  30.8842530
  37.0787200  50.3448760  31.7166680  38.0833890  50.9222580  30.7424250
  38.7520090  34.9971990  20.1353770  39.4748220  35.5380930  20.4534990
  39.0244610  34.7235410  19.2595310  39.2708910  47.8874080  33.0160720
  38.5442970  47.2679370  32.9486670  39.3318060  48.2814690  32.1458800
  37.5538910  51.2048470  26.2257480  37.3860950  50.5719150  26.9239370
  36.6873420  51.4107870  25.8751670  38.1766930  35.0365250  23.7289340
  38.9346290  35.1494130  23.1553370  37.7144100  35.8734450  23.6832770
  39.1601610  49.8981700  23.6707620  38.6349230  50.2789730  22.9669580
  39.0846190  50.5232470  24.3917330  40.5492080  35.5629300  22.2691310
  41.0784840  34.7759100  22.1399260  41.1820400  36.2420490  22.5026840
  40.9209370  47.9628810  22.5503200  40.2918250  48.4313910  23.0989030
  41.0357200  47.1178030  22.9849390  48.3759090  42.0134470   8.7004400
  48.2953140  41.0989080   8.4296110  47.9623510  42.5101540   7.9944110
  46.5077130  43.7913490  10.5813670  45.7319230  43.3113930  10.8712240
  47.1590060  43.1119140  10.4069830  40.5242960  44.1033300  11.4589430
  39.6927840  43.8482010  11.8585940  41.1323940  44.1744070  12.1947350
  50.5284560  48.1973680   9.3612800  50.0666090  47.4260920   9.6899970
  51.3410110  48.2239750   9.8665250  40.5044220  48.1373390  11.6547450
  40.8072260  47.2471130  11.4757670  41.2487810  48.6943610  11.4269700
  38.9334910  39.0635190   5.2431820  38.0451610  39.4051160   5.1411700
  39.2176100  38.8635510   4.3512650  36.8967920  41.6640840  11.1271520
  37.4684030  40.8963040  11.1275160  36.8969460  41.9629600  10.2178130
  46.7547870  50.4831690   8.9816790  46.1359310  50.9389190   8.4111230
  47.6099650  50.6383150   8.5806490  45.9486120  46.4670680  10.5883830
  45.8794400  45.5260620  10.4272960  46.7105980  46.5572090  11.1606400
  38.1392790  37.0725200  12.9140450  37.9595630  36.1750950  13.1943210
  37.7372870  37.6197070  13.5887400  46.9791290  39.2741060  10.8152760
  47.3556110  38.4012940  10.7026430  46.8810800  39.6099760   9.9243200
  41.1096300  37.6466690   6.2770200  41.2163050  38.5470420   6.5838960
  40.1988660  37.5984660   5.9864850  50.7615410  36.7691500   7.7481100
  51.5825030  36.2788070   7.7906580  50.7949490  37.3589160   8.5012940
  38.7579460  39.5685700  11.5222790  39.4389570  39.8324070  12.1410190
  38.4427510  38.7286570  11.8560800  42.9504030  40.6153060  10.6095380
  43.4582250  41.1134030  11.2500400  43.4817270  39.8388260  10.4334740
  55.0514960  38.7858250  14.3124730  54.3467130  39.1739960  13.7939840
  55.3172880  39.4808540  14.9145660  41.2340130  35.2551620  14.8758800
  41.2358570  35.7724010  14.0704700  40.4044440  34.7781800  14.8528730
  47.6211220  45.3670930   6.3748700  47.0028490  45.8320380   5.8111420
  48.1334470  46.0598410   6.7918210  42.4842980  44.8946800  13.0532300
  42.1512360  45.5215720  13.6953370  42.6609660  45.4208680  12.2733970
  50.9976890  38.7091880  10.5208640  50.2932460  38.9976770  11.1011750
  51.3589050  39.5191990  10.1608200  40.9155460  36.9661580  12.8829250
  41.2572270  37.8103630  12.5883120  39.9771270  37.1145320  12.9994590
  41.6962080  46.8627600  14.8681480  42.3136080  47.5378680  14.5865930
  40.8355200  47.2715580  14.7768980  36.9894420  46.0527460   3.7488330
  36.6122400  46.5414560   3.0173230  37.2467490  46.7252740   4.3794860
  52.6139670  48.3267010  12.7836120  51.9303190  48.9966120  12.7752790
  53.1533960  48.5247660  12.0180980  54.0663810  38.1546670  10.9117850
  53.1188720  38.1885650  11.0433280  54.3913800  38.9685620  11.2967210
  44.5983350  34.4543850   9.2073840  44.9058330  33.8990740   8.4909340
  43.6684050  34.5888310   9.0246830  51.4443830  46.8927360   6.5871470
  51.3340160  45.9501690   6.7120890  51.4412080  47.2543000   7.4734230
  49.5483850  45.0740980  12.8263910  49.9652640  44.8601090  11.9917370
  50.2723670  45.3313770  13.3972530  46.9864110  42.5192680   5.9433960
  46.0593390  42.4530060   6.1722430  47.1388930  43.4572810   5.8289200
  46.9733190  38.7909680   2.9401120  46.0336860  38.9523640   3.0253580
  47.2916450  39.5095360   2.3937110  53.4945950  43.4728200  12.9180150
  52.6664580  43.5421290  12.4430280  54.0896430  44.0582510  12.4495980
  51.0161400  44.0812980   6.4469210  50.3973820  43.7432530   5.7995510
  50.9985850  43.4372740   7.1548400  50.4587960  40.2597520  13.8635020
  50.0459140  41.0851230  14.1175010  49.7263910  39.6742560  13.6711380
  42.5920750  43.0457420   8.7253690  42.1877750  42.3334670   8.2299590
  42.6783870  42.7010660   9.6141730  43.0602450  46.7324980  10.8892900
  42.7630740  46.1270450  10.2100680  44.0102270  46.7702290  10.7782260
  41.3049370  39.8200630  12.5052730  41.8563960  39.9295970  11.7305980
  41.8192880  40.1938230  13.2207960  42.1520880  46.4706670  17.5400700
  41.2549410  46.6946640  17.7874100  42.1773750  46.5941610  16.5912100
  49.1926100  43.3199790   3.4541960  49.6319380  42.4822220   3.3079780
  49.9054520  43.9529190   3.5406100  40.9792100  43.3419990  16.1158070
  40.8399870  44.2142790  16.4845470  40.0973460  42.9992800  15.9706010
  47.3021480  48.2595860   7.4223200  47.7417390  49.0020190   7.0078590
  47.2408370  48.5022430   8.3462160  42.7772450  49.2841690  18.3243220
  42.7487880  49.6884640  17.4571650  42.6137420  48.3552050  18.1614820
  52.7743240  34.5742600   1.7683000  52.4615900  34.6669430   2.6682070
  53.5355710  35.1523630   1.7180430  39.2925380  41.9402400   6.2260340
  39.1722980  42.6664490   5.6141610  38.9826270  41.1705310   5.7488250
  36.9310750  45.1117540  12.0328980  37.0091170  45.2466310  11.0884700
  37.5452430  44.4033430  12.2257100  38.1758380  46.8117730   8.4435160
  37.7686460  46.9532320   7.5888760  39.0671390  46.5277890   8.2406370
  49.9691660  51.2464980   4.7786210  49.8092800  50.9567920   5.6768040
  49.8038370  50.4705110   4.2431440  42.4480040  51.0263510   6.5557830
  42.2722520  50.1099050   6.3425630  41.5935780  51.3850800   6.7955630
  49.6717790  48.7552540   3.3384210  48.9782950  48.7529830   2.6786490
  50.4140650  48.3311860   2.9078380  49.2367720  50.3815250   7.4132700
  49.6924670  49.6004630   7.7271320  49.5760240  51.0922070   7.9573880
  53.9844530  39.3114100  17.7457140  53.3688800  39.8193770  17.2172600
  53.6640950  38.4112430  17.6883080  36.9870270  46.1531710  14.5723440
  37.1501310  45.6837070  13.7542810  37.4522720  45.6455270  15.2372280
  41.7589040  35.2837470   9.6084010  41.3157190  36.0647010   9.2768530
  42.3174030  35.6067360  10.3154950  46.0458850  38.1505990  15.2119330
  45.5838220  38.3589010  16.0239270  45.6436960  37.3365340  14.9090000
  51.0463360  39.3714940  16.3415990  50.1956950  39.0720690  16.6625060
  50.8865150  39.6156950  15.4299810  48.1413070  40.8716690  18.4414780
  48.4666480  40.0380440  18.1017010  48.9293400  41.3945210  18.5893110
  44.8747860  34.9048170   4.4889840  44.2502040  34.9008040   5.2143150
  44.7877980  34.0379130   4.0925810  43.7964940  35.8284800  11.4673610
  44.0937270  36.7347630  11.3865630  44.3450500  35.3403580  10.8533180
  41.5503260  40.4071040   7.3365260  41.3244180  40.1908210   8.2411880
  40.7695790  40.8399500   6.9911230  48.7801020  40.4134410   5.9355910
  48.1809910  41.1370210   5.7519530  49.3280630  40.3511190   5.1532360
  47.3865890  39.0497950   7.9659190  47.7795460  39.3670150   7.1527880
  47.7482740  38.1709830   8.0803710  39.1213010  37.7170290  16.1559310
  38.7276400  38.5645500  16.3632090  38.4331410  37.0796660  16.3467950
  36.4230060  35.6398750  10.1889390  36.1343110  36.2101610  10.9014370
  37.1675820  35.1603200  10.5520620  47.9721030  41.6403700  12.0609970
  47.2402150  42.1490510  12.4100070  47.5745370  40.8233680  11.7598750
  44.4098420  38.3157900  10.4662460  44.4134480  37.8747850   9.6167000
  45.3049540  38.6375230  10.5734280  40.2600800  38.1984390   9.4256670
  39.9200850  38.6759620  10.1823720  39.4978120  37.7449510   9.0657770
  44.4718570  39.3169980   3.4569220  44.5931390  39.2756460   4.4055040
  44.0867080  40.1794130   3.3015950  48.4346940  37.0937380  11.4732910
  48.4519680  37.5446030  12.3174760  48.1862520  36.1943020  11.6866350
  43.4840070  41.6271120   2.8552520  42.9156970  41.1789370   2.2288430
  44.1929070  41.9863900   2.3217670  51.8617690  34.5069560  17.3119290
  52.1863460  33.7759220  17.8377270  51.8974200  34.1883200  16.4100280
  38.5609250  45.5283140  16.7319250  38.1764040  44.8876810  17.3302210
  38.8721440  46.2319260  17.3013980  44.7106390  42.3759680  12.2127870
  45.0776520  41.9018250  12.9589210  44.5211450  43.2501250  12.5536210
  37.5746880  37.1203370   8.3421340  37.2893800  36.7559040   9.1799960
  37.5125740  36.3883830   7.7284480  42.5005760  41.4168320  14.5312080
  42.1962830  42.2960300  14.7562440  43.4552220  41.4768110  14.5669520
  41.0287550  45.6229310   5.1278930  40.2549810  45.0826930   4.9677650
  41.7582180  45.1035920   4.7896690  51.7875530  44.6194670  10.9205320
  52.5074650  45.1149960  10.5301430  51.5857350  43.9412560  10.2759190
  47.2485470  36.0132630   5.0634710  46.4350080  35.5145800   4.9880020
  47.0547420  36.8530880   4.6471060  47.1694330  44.6903730  16.8074320
  47.1031640  43.7699400  16.5531910  46.5399470  44.7879170  17.5218960
  49.9633860  40.3852280   3.3596870  50.8513480  40.6969510   3.1848210
  49.9338950  39.5124530   2.9677450  41.0724950  45.2909690   8.7657740
  41.5903620  44.4877950   8.7114630  40.6208970  45.2288830   9.6074570
  45.9594450  46.5575970   4.0385040  46.3010150  47.3018200   3.5428360
  45.1307160  46.8707090   4.4009870  38.5569490  42.2571060  15.6783440
  38.1984430  42.9224910  16.2656780  38.2624050  41.4254610  16.0496060
  47.1011060  47.5124300  16.5578120  47.1155600  46.5805260  16.3397030
  46.3936160  47.5984060  17.1967890  52.2348130  41.6964120   2.8276730
  52.1511850  42.1278340   1.9773170  52.9542320  42.1562470   3.2603550
  53.2635380  48.5506380   5.5558860  52.6211540  47.8962000   5.8302580
  52.8766040  48.9561470   4.7799530  48.8421860  45.8791810   9.4030550
  49.1945680  45.2819940   8.7431920  47.9584190  45.5536040   9.5738800
  44.9285140  46.6389500   6.8100960  45.6156270  47.1858710   7.1908550
  44.1417560  47.1830230   6.8450570  37.0677540  42.2562320   2.3018040
  37.9372390  42.5387120   2.5853960  36.5767860  43.0698190   2.1866850
  44.2312350  43.6435530   6.4226320  44.6875130  44.4540780   6.6486510
  43.8800560  43.3258670   7.2544810  46.5344960  49.1541870  13.6518620
  47.1787180  49.3601250  14.3292040  46.8974400  48.3930270  13.1989470
  40.1324130  33.9873180   6.8948840  40.0038760  33.9791080   7.8433760
  39.3086150  34.3256270   6.5439850  47.8077040  47.1574220  12.3696070
  48.4499270  46.4567380  12.4828240  48.3326390  47.9372660  12.1892960
  49.5814660  47.9569120  15.5732130  49.9170900  48.5435810  16.2510050
  48.6615000  47.8261830  15.8029920  37.4348790  51.4689700   2.8679670
  37.7946430  52.0679040   2.2136940  37.2941130  52.0149590   3.6414700
  37.1318060  35.7464300  16.3555540  36.4176580  35.9461220  16.9608150
  37.5513100  34.9703870  16.7270340  51.2349010  45.3594780   3.7549370
  50.9470710  45.8207470   4.5427250  52.0301180  44.8992550   4.0233590
  37.4190650  49.7344560  17.3422070  37.5281770  48.7939300  17.2017460
  36.7671210  49.9999310  16.6935800  45.4103240  48.0060450  18.7420190
  45.0900110  47.2869690  19.2865880  44.7361600  48.6815520  18.8156250
  43.4517410  48.8520900   3.6853340  43.4427510  49.5850590   3.0697850
  42.5315770  48.6052480   3.7780300  39.0524050  44.0735790   4.4300100
  38.4452000  44.8134690   4.4395400  39.5273400  44.1635150   3.6038300
  48.6256840  38.2386610  14.1056990  48.9937660  37.4181820  14.4336560
  47.7655040  38.2988500  14.5212640  51.9918870  37.1943550   4.9144550
  51.3632030  37.2989220   4.2002780  51.4970790  37.4140330   5.7038430
  43.9602900  39.4729500   6.3302430  43.2519050  39.9415840   6.7716040
  44.2447380  38.8151510   6.9647620  45.5858830  40.8926200  14.3294960
  46.0844080  41.3672020  14.9946810  45.7281780  39.9689720  14.5364990
  47.9918330  36.1980160   7.7698220  47.8686110  36.2166290   6.8207730
  48.9402890  36.2459100   7.8896620  45.0795120  51.4335460   7.0426200
  45.3336620  51.3956850   6.1205570  44.1307600  51.3068790   7.0354450
  42.1637920  37.7814580   3.7053140  43.0128450  38.2184730   3.6393330
  41.7969190  38.0934840   4.5325200  52.7925690  37.1094160  15.1723350
  52.2899290  37.8499560  15.5117160  53.6082350  37.4978160  14.8560140
  51.0847700  42.3527340   8.6184710  50.1437840  42.3677570   8.7932400
  51.3991770  41.5663300   9.0645010  39.7576100  41.4672010   2.8621560
  39.8379690  40.5199520   2.9738960  40.6495850  41.7978890   2.9682220
  53.0873280  49.5236190  10.2938970  53.2120700  50.3467360  10.7662780
  53.9538840  49.3126920   9.9463120  40.5590810  51.6167400   9.9656100
  41.2953290  51.0682860  10.2364670  40.9431730  52.4823410   9.8262090
  37.4436290  47.6840970   5.8397610  36.5176070  47.9262110   5.8303020
  37.9092720  48.5115230   5.7182360  39.5649090  50.8013470  19.1541680
  40.3661820  51.1225520  19.5677080  39.0500910  50.4409050  19.8761590
  48.4013720  46.9093340  19.1017090  47.7951880  46.9324940  18.3612840
  48.0967830  46.1776380  19.6384340  52.7223290  50.0167840   3.2118410
  52.4364800  49.6032980   2.3972590  52.5242840  50.9455550   3.0918930
  37.2846900  43.2886930  18.0977730  37.7885920  42.7094210  18.6693960
  36.5454320  43.5727160  18.6354100  47.4273250  45.0721150   2.2566010
  46.8783350  45.5190450   2.9008750  48.0492510  44.5670400   2.7803680
  51.4808190  46.4263250  18.1888270  52.2217660  46.7639010  17.6855730
  50.7180870  46.5955310  17.6358040  43.0948370  44.0312070   4.1531310
  43.5164790  43.8651940   4.9962700  43.2199210  43.2212300   3.6586450
  50.1553850  44.4778080  16.7243480  50.5694870  44.6323160  17.5733900
  49.2204850  44.6033300  16.8869260  50.6276020  41.8174240  18.7282630
  51.2096790  41.0626560  18.6403110  50.8037790  42.3481680  17.9514110
  41.7448090  36.9770990  17.0399580  41.6504960  36.3591740  16.3150450
  41.1645480  37.7037280  16.8129490  44.5109530  35.5344230  14.0726970
  44.0626830  35.5568490  13.2272520  43.8774730  35.1363250  14.6697270
  44.9169080  44.4298560  14.6939410  45.3357190  45.2731290  14.5215650
  43.9977710  44.5670600  14.4646190  47.2532980  42.1614740  16.0777250
  47.3729190  41.5655880  16.8172090  48.1126980  42.1984430  15.6578550
  49.5920880  42.7151930  14.6539760  49.0656100  43.2394550  14.0504900
  49.9352220  43.3479320  15.2849490  42.7676500  50.7351570  15.8097140
  42.2297590  51.4597630  15.4905840  43.0210460  50.2581910  15.0194480
  44.0201750  38.7036090  17.3353070  44.6101440  38.3951940  18.0230890
  43.2021990  38.2315840  17.4912970  49.4695580  34.9153530   3.6276350
  49.7497870  34.0721430   3.9835770  48.6961310  35.1476640   4.1415100
  46.1724040  51.1361290   3.6910150  47.0674830  51.4746260   3.7128910
  46.2041670  50.4140700   3.0634430  39.8120200  46.5088340   1.9197150
  40.2495070  47.0518010   2.5754730  40.2967930  45.6835290   1.9293490
  37.0266000  49.2977370   9.3717410  37.3569010  48.4298430   9.1396050
  37.4557000  49.5035890  10.2022370  41.6227920  47.6286380   7.0319380
  41.3223460  47.5051350   7.9323290  41.5165410  46.7694970   6.6235110
  37.5156210  50.1647960  12.1099040  37.0787200  50.3448760  12.9423190
  38.0833890  50.9222580  11.9680760  53.8476300  44.1530260   4.2380260
  54.6095210  44.7226910   4.3439950  53.8630670  43.5857460   5.0088570
  37.3480640  42.6768190   8.4687920  36.6929480  42.4079830   7.8247620
  38.1858590  42.5672670   8.0189900  54.8536270  45.0080360   9.0822190
  55.2245100  44.2247680   8.6758160  55.4938200  45.6969460   8.9039490
  51.8370030  46.3916940  14.4952510  51.0229870  46.8214100  14.7578300
  52.2444230  47.0035350  13.8821560  50.2971080  37.4709480   2.6906410
  50.7155960  37.2840460   1.8503070  49.9907140  36.6188530   3.0009340
  53.7960810  42.3833620   6.3882210  53.4204410  41.6161550   5.9563500
  53.0663930  42.7656320   6.8757140  38.3856570  43.0620760  13.0091260
  38.7529610  42.9748160  13.8887280  37.8167390  42.2987310  12.9098120
  53.1860430  41.5305140  16.0221730  52.9546520  41.3017890  15.1219680
  53.4464980  42.4504690  15.9766620  37.9372570  39.9729850  16.9149680
  37.0428620  39.9396610  17.2543390  38.4770120  40.1716640  17.6800930
  36.5618720  39.8867120   4.4113250  35.6582800  40.1497320   4.2364910
  37.0459340  40.1578290   3.6313210  53.0711770  40.6091110   9.6889450
  53.5949250  40.1153760   9.0579620  53.6571190  40.7441470  10.4337020
  53.2501490  40.6930980  13.2109000  52.3004200  40.6594520  13.3253990
  53.4314500  41.6031090  12.9758770  39.1045930  38.9432660   2.3207630
  39.8137630  38.5215880   1.8354910  38.3885870  39.0107890   1.6890980
  52.5611740  39.8664460   5.6281860  53.0570860  39.6335330   6.4130740
  52.3627810  39.0276300   5.2119500  38.4412280  34.2478180  11.2632900
  39.0888470  33.6975560  10.8228060  38.8614120  34.5021330  12.0848710
  53.9898900  38.5025410   8.1619540  53.8798180  38.3481450   9.1001810
  54.7506490  37.9746350   7.9194950  52.3364620  34.4419540  14.6202540
  52.9736840  35.0553680  14.9861730  52.4839510  34.4780200  13.6751770
  54.9527660  37.1043990   4.0282390  54.1579160  37.0389110   4.5575300
  55.1570940  38.0394630   4.0167740  51.8946080  51.1435540   8.0220780
  52.4905150  50.8220110   7.3455200  52.1524230  50.6707360   8.8134050
  38.1944280  34.4033850  14.0058220  37.8459100  34.8597670  14.7716400
  37.8631980  33.5090980  14.0880650  39.8008650  47.5753450  18.1711410
  39.7578280  47.2046360  19.0525870  39.9319660  48.5131020  18.3113230
  43.5014680  49.1313040  13.7721130  43.2606040  49.3987600  12.8851650
  44.4417320  49.3018770  13.8271990  45.7069100  35.5945730  17.5277640
  45.6457990  36.1867560  18.2773050  46.6469480  35.4871690  17.3827900
  48.3443660  35.2515790  17.1669930  48.9584070  35.5695080  16.5051010
  48.8893220  34.7664380  17.7865790  38.8664920  33.9310050  17.2808990
  39.4147910  33.7498100  16.5175100  38.9320230  33.1404160  17.8165300
  39.6396680  50.5215700  15.2909190  39.0457000  50.3900400  16.0299230
  39.6320520  49.6853840  14.8251290  49.0851700  33.8147930  13.4939220
  48.2111540  34.1483040  13.2912150  48.9762450  33.3421110  14.3191090
  49.9923680  36.0218800  14.8780940  49.6637040  35.2070560  14.4982670
  50.9405980  35.9788610  14.7546630  39.2708910  47.8874080  14.2417230
  38.5442970  47.2679370  14.1743180  39.3318060  48.2814690  13.3715310
  42.8754010  50.1019080  11.0266640  43.3919030  49.4906440  10.5014900
  43.5251390  50.6047860  11.5177650  45.6149510  50.9927570  11.8535620
  45.9027320  50.7381870  10.9768630  46.1272730  50.4404930  12.4441190
  46.8326520  34.7317770  12.4332130  46.0498310  35.2063270  12.7128890
  46.5389450  33.8272600  12.3245310  51.3847590  35.4340870  10.4781220
  51.8255680  35.3785970   9.6302820  51.1155180  36.3498880  10.5491400
  53.2486160  35.0656110   8.4890040  53.1874560  34.1217330   8.3421060
  54.0278190  35.1736200   9.0343500  37.5538910  51.2048470   7.4513990
  37.3860950  50.5719150   8.1495880  36.6873420  51.4107870   7.1008180
  38.1766930  35.0365250   4.9545850  38.9346290  35.1494130   4.3809880
  37.7144100  35.8734450   4.9089280  44.7180740  37.1504520   7.9448160
  43.9055250  36.7761410   7.6044040  45.2222380  36.3949600   8.2469350
  49.2205720  33.8146970   9.1831230  49.8235090  34.3867180   9.6579750
  48.4798710  34.3786410   8.9605130  52.3640320  34.2168530   4.4571510
  52.5590950  35.1151980   4.7238940  51.5770190  33.9855610   4.9504460
  39.1601610  49.8981700   4.8964130  38.6349230  50.2789730   4.1926090
  39.0846190  50.5232470   5.6173840  40.5492080  35.5629300   3.4947820
  41.0784840  34.7759100   3.3655770  41.1820400  36.2420490   3.7283350
  42.7429920  35.3004440   6.5493210  42.1132660  34.5991750   6.7163340
  42.2035060  36.0608570   6.3326370  53.9166930  51.4569240   6.2178070
  54.0919120  50.7706980   5.5738990  53.2188500  51.9816290   5.8254740
  42.8685480  34.5788420  18.9845700  42.5869750  35.0822020  18.2206520
  43.2505180  33.7810170  18.6187830  41.7594580  51.8464080   3.7713380
  42.4913400  51.5623360   3.2237270  42.0188250  51.6077360   4.6612760
  40.9209370  47.9628810   3.7759710  40.2918250  48.4313910   4.3245540
  41.0357200  47.1178030   4.2105900  49.4700940  33.9942000  19.5626170
  49.3566390  34.3136610  20.4577690  50.2870680  34.3954510  19.2663450
  48.3759090  23.2390980  83.7978360  48.2953140  22.3245590  83.5270070
  47.9623510  23.7358050  83.0918070  46.5077130  25.0170000  85.6787630
  45.7319230  24.5370440  85.9686200  47.1590060  24.3375650  85.5043790
  40.5242960  25.3289810  86.5563390  39.6927840  25.0738520  86.9559900
  41.1323940  25.4000580  87.2921310  50.5284560  29.4230190  84.4586760
  50.0666090  28.6517430  84.7873930  51.3410110  29.4496260  84.9639210
  40.5044220  29.3629900  86.7521410  40.8072260  28.4727640  86.5731630
  41.2487810  29.9200120  86.5243660  38.9334910  20.2891700  80.3405780
  38.0451610  20.6307670  80.2385660  39.2176100  20.0892020  79.4486610
  36.8967920  22.8897350  86.2245480  37.4684030  22.1219550  86.2249120
  36.8969460  23.1886110  85.3152090  46.7547870  31.7088200  84.0790750
  46.1359310  32.1645700  83.5085190  47.6099650  31.8639660  83.6780450
  45.9486120  27.6927190  85.6857790  45.8794400  26.7517130  85.5246920
  46.7105980  27.7828600  86.2580360  38.1392790  18.2981710  88.0114410
  37.9595630  17.4007460  88.2917170  37.7372870  18.8453580  88.6861360
  46.9791290  20.4997570  85.9126720  47.3556110  19.6269450  85.8000390
  46.8810800  20.8356270  85.0217160  41.1096300  18.8723200  81.3744160
  41.2163050  19.7726930  81.6812920  40.1988660  18.8241170  81.0838810
  50.7615410  17.9948010  82.8455060  51.5825030  17.5044580  82.8880540
  50.7949490  18.5845670  83.5986900  38.7579460  20.7942210  86.6196750
  39.4389570  21.0580580  87.2384150  38.4427510  19.9543080  86.9534760
  42.9504030  21.8409570  85.7069340  43.4582250  22.3390540  86.3474360
  43.4817270  21.0644770  85.5308700  55.0514960  20.0114760  89.4098690
  54.3467130  20.3996470  88.8913800  55.3172880  20.7065050  90.0119620
  41.2340130  16.4808130  89.9732760  41.2358570  16.9980520  89.1678660
  40.4044440  16.0038310  89.9502690  47.6211220  26.5927440  81.4722660
  47.0028490  27.0576890  80.9085380  48.1334470  27.2854920  81.8892170
  42.4842980  26.1203310  88.1506260  42.1512360  26.7472230  88.7927330
  42.6609660  26.6465190  87.3707930  50.9976890  19.9348390  85.6182600
  50.2932460  20.2233280  86.1985710  51.3589050  20.7448500  85.2582160
  40.9155460  18.1918090  87.9803210  41.2572270  19.0360140  87.6857080
  39.9771270  18.3401830  88.0968550  41.6962080  28.0884110  89.9655440
  42.3136080  28.7635190  89.6839890  40.8355200  28.4972090  89.8742940
  36.9894420  27.2783970  78.8462290  36.6122400  27.7671070  78.1147190
  37.2467490  27.9509250  79.4768820  52.6139670  29.5523520  87.8810080
  51.9303190  30.2222630  87.8726750  53.1533960  29.7504170  87.1154940
  54.0663810  19.3803180  86.0091810  53.1188720  19.4142160  86.1407240
  54.3913800  20.1942130  86.3941170  44.5983350  15.6800360  84.3047800
  44.9058330  15.1247250  83.5883300  43.6684050  15.8144820  84.1220790
  50.1498410  31.3967650  86.5955260  50.1625570  30.9929940  85.7277520
  49.5973630  32.1714940  86.4916690  51.4443830  28.1183870  81.6845430
  51.3340160  27.1758200  81.8094850  51.4412080  28.4799510  82.5708190
  49.5483850  26.2997490  87.9237870  49.9652640  26.0857600  87.0891330
  50.2723670  26.5570280  88.4946490  46.9864110  23.7449190  81.0407920
  46.0593390  23.6786570  81.2696390  47.1388930  24.6829320  80.9263160
  46.9733190  20.0166190  78.0375080  46.0336860  20.1780150  78.1227540
  47.2916450  20.7351870  77.4911070  53.4945950  24.6984710  88.0154110
  52.6664580  24.7677800  87.5404240  54.0896430  25.2839020  87.5469940
  51.0161400  25.3069490  81.5443170  50.3973820  24.9689040  80.8969470
  50.9985850  24.6629250  82.2522360  50.4587960  21.4854030  88.9608980
  50.0459140  22.3107740  89.2148970  49.7263910  20.8999070  88.7685340
  42.5920750  24.2713930  83.8227650  42.1877750  23.5591180  83.3273550
  42.6783870  23.9267170  84.7115690  43.0602450  27.9581490  85.9866860
  42.7630740  27.3526960  85.3074640  44.0102270  27.9958800  85.8756220
  41.3049370  21.0457140  87.6026690  41.8563960  21.1552480  86.8279940
  41.8192880  21.4194740  88.3181920  51.1488060  31.5313360  89.6489960
  50.6718620  32.3385550  89.4562570  50.4649850  30.8791690  89.8016170
  42.1520880  27.6963180  92.6374660  41.2549410  27.9203150  92.8848060
  42.1773750  27.8198120  91.6886060  49.1926100  24.5456300  78.5515920
  49.6319380  23.7078730  78.4053740  49.9054520  25.1785700  78.6380060
  40.9792100  24.5676500  91.2132030  40.8399870  25.4399300  91.5819430
  40.0973460  24.2249310  91.0679970  47.3021480  29.4852370  82.5197160
  47.7417390  30.2276700  82.1052550  47.2408370  29.7278940  83.4436120
  42.7772450  30.5098200  93.4217180  42.7487880  30.9141150  92.5545610
  42.6137420  29.5808560  93.2588780  52.7743240  15.7999110  76.8656960
  52.4615900  15.8925940  77.7656030  53.5355710  16.3780140  76.8154390
  39.2925380  23.1658910  81.3234300  39.1722980  23.8921000  80.7115570
  38.9826270  22.3961820  80.8462210  36.9310750  26.3374050  87.1302940
  37.0091170  26.4722820  86.1858660  37.5452430  25.6289940  87.3231060
  38.1758380  28.0374240  83.5409120  37.7686460  28.1788830  82.6862720
  39.0671390  27.7534400  83.3380330  54.1320520  28.4838150  91.8781360
  54.2583580  28.2450030  90.9598540  54.1741900  27.6522690  92.3503440
  47.9937260  32.1866150  90.4476170  48.5081930  32.0974160  91.2498600
  47.1506340  32.5325850  90.7404080  49.9691660  32.4721490  79.8760170
  49.8092800  32.1824430  80.7742000  49.8038370  31.6961620  79.3405400
  42.4480040  32.2520020  81.6531790  42.2722520  31.3355560  81.4399590
  41.5935780  32.6107310  81.8929590  49.6717790  29.9809050  78.4358170
  48.9782950  29.9786340  77.7760450  50.4140650  29.5568370  78.0052340
  49.2367720  31.6071760  82.5106660  49.6924670  30.8261140  82.8245280
  49.5760240  32.3178580  83.0547840  53.9844530  20.5370610  92.8431100
  53.3688800  21.0450280  92.3146560  53.6640950  19.6368940  92.7857040
  36.9870270  27.3788220  89.6697400  37.1501310  26.9093580  88.8516770
  37.4522720  26.8711780  90.3346240  41.7589040  16.5093980  84.7057970
  41.3157190  17.2903520  84.3742490  42.3174030  16.8323870  85.4128910
  46.0458850  19.3762500  90.3093290  45.5838220  19.5845520  91.1213230
  45.6436960  18.5621850  90.0063960  51.0463360  20.5971450  91.4389950
  50.1956950  20.2977200  91.7599020  50.8865150  20.8413460  90.5273770
  48.1413070  22.0973200  93.5388740  48.4666480  21.2636950  93.1990970
  48.9293400  22.6201720  93.6867070  44.8747860  16.1304680  79.5863800
  44.2502040  16.1264550  80.3117110  44.7877980  15.2635640  79.1899770
  43.7964940  17.0541310  86.5647570  44.0937270  17.9604140  86.4839590
  44.3450500  16.5660090  85.9507140  41.5503260  21.6327550  82.4339220
  41.3244180  21.4164720  83.3385840  40.7695790  22.0656010  82.0885190
  48.7801020  21.6390920  81.0329870  48.1809910  22.3626720  80.8493490
  49.3280630  21.5767700  80.2506320  43.9902470  22.5313130  93.0999490
  43.8946070  21.5907860  92.9499890  44.8334450  22.7528200  92.7047560
  47.3865890  20.2754460  83.0633150  47.7795460  20.5926660  82.2501840
  47.7482740  19.3966340  83.1777670  39.1213010  18.9426800  91.2533270
  38.7276400  19.7902010  91.4606050  38.4331410  18.3053170  91.4441910
  36.4230060  16.8655260  85.2863350  36.1343110  17.4358120  85.9988330
  37.1675820  16.3859710  85.6494580  36.6100290  20.8075380  76.4966070
  36.5274960  21.7506140  76.6381060  36.2583350  20.6650290  75.6178420
  47.9721030  22.8660210  87.1583930  47.2402150  23.3747020  87.5074030
  47.5745370  22.0490190  86.8572710  44.4098420  19.5414410  85.5636420
  44.4134480  19.1004360  84.7140960  45.3049540  19.8631740  85.6708240
  40.2600800  19.4240900  84.5230630  39.9200850  19.9016130  85.2797680
  39.4978120  18.9706020  84.1631730  44.4718570  20.5426490  78.5543180
  44.5931390  20.5012970  79.5029000  44.0867080  21.4050640  78.3989910
  48.4346940  18.3193890  86.5706870  48.4519680  18.7702540  87.4148720
  48.1862520  17.4199530  86.7840310  43.4840070  22.8527630  77.9526480
  42.9156970  22.4045880  77.3262390  44.1929070  23.2120410  77.4191630
  51.8617690  15.7326070  92.4093250  52.1863460  15.0015730  92.9351230
  51.8974200  15.4139710  91.5074240  38.5609250  26.7539650  91.8293210
  38.1764040  26.1133320  92.4276170  38.8721440  27.4575770  92.3987940
  44.7106390  23.6016190  87.3101830  45.0776520  23.1274760  88.0563170
  44.5211450  24.4757760  87.6510170  37.5746880  18.3459880  83.4395300
  37.2893800  17.9815550  84.2773920  37.5125740  17.6140340  82.8258440
  42.5005760  22.6424830  89.6286040  42.1962830  23.5216810  89.8536400
  43.4552220  22.7024620  89.6643480  41.0287550  26.8485820  80.2252890
  40.2549810  26.3083440  80.0651610  41.7582180  26.3292430  79.8870650
  51.7875530  25.8451180  86.0179280  52.5074650  26.3406470  85.6275390
  51.5857350  25.1669070  85.3733150  47.2485470  17.2389140  80.1608670
  46.4350080  16.7402310  80.0853980  47.0547420  18.0787390  79.7445020
  47.1694330  25.9160240  91.9048280  47.1031640  24.9955910  91.6505870
  46.5399470  26.0135680  92.6192920  49.9633860  21.6108790  78.4570830
  50.8513480  21.9226020  78.2822170  49.9338950  20.7381040  78.0651410
  41.0724950  26.5166200  83.8631700  41.5903620  25.7134460  83.8088590
  40.6208970  26.4545340  84.7048530  45.9594450  27.7832480  79.1359000
  46.3010150  28.5274710  78.6402320  45.1307160  28.0963600  79.4983830
  38.5569490  23.4827570  90.7757400  38.1984430  24.1481420  91.3630740
  38.2624050  22.6511120  91.1470020  41.7582610  23.9411810  93.6596950
  41.4582750  24.0868990  92.7624770  42.5293850  23.3817100  93.5670340
  47.1011060  28.7380810  91.6552080  47.1155600  27.8061770  91.4370990
  46.3936160  28.8240570  92.2941850  52.2348130  22.9220630  77.9250690
  52.1511850  23.3534850  77.0747130  52.9542320  23.3818980  78.3577510
  53.3122270  25.3788150  91.0020660  52.5870460  25.9716930  90.8050050
  53.8397730  25.3711690  90.2034030  53.2635380  29.7762890  80.6532820
  52.6211540  29.1218510  80.9276540  52.8766040  30.1817980  79.8773490
  48.8421860  27.1048320  84.5004510  49.1945680  26.5076450  83.8405880
  47.9584190  26.7792550  84.6712760  44.9285140  27.8646010  81.9074920
  45.6156270  28.4115220  82.2882510  44.1417560  28.4086740  81.9424530
  37.0677540  23.4818830  77.3992000  37.9372390  23.7643630  77.6827920
  36.5767860  24.2954700  77.2840810  44.2312350  24.8692040  81.5200280
  44.6875130  25.6797290  81.7460470  43.8800560  24.5515180  82.3518770
  46.5344960  30.3798380  88.7492580  47.1787180  30.5857760  89.4266000
  46.8974400  29.6186780  88.2963430  40.1324130  15.2129690  81.9922800
  40.0038760  15.2047590  82.9407720  39.3086150  15.5512780  81.6413810
  47.8077040  28.3830730  87.4670030  48.4499270  27.6823890  87.5802200
  48.3326390  29.1629170  87.2866920  51.6532760  28.6679350  77.1909170
  51.4270340  27.9509790  77.7833810  51.2628960  28.4191790  76.3530920
  49.5814660  29.1825630  90.6706090  49.9170900  29.7692320  91.3484010
  48.6615000  29.0518340  90.9003880  37.4348790  32.6946210  77.9653630
  37.7946430  33.2935550  77.3110900  37.2941130  33.2406100  78.7388660
  37.1318060  16.9720810  91.4529500  36.4176580  17.1717730  92.0582110
  37.5513100  16.1960380  91.8244300  51.2349010  26.5851290  78.8523330
  50.9470710  27.0463980  79.6401210  52.0301180  26.1249060  79.1207550
  37.4190650  30.9601070  92.4396030  37.5281770  30.0195810  92.2991420
  36.7671210  31.2255820  91.7909760  43.4517410  30.0777410  78.7827300
  43.4427510  30.8107100  78.1671810  42.5315770  29.8308990  78.8754260
  39.0524050  25.2992300  79.5274060  38.4452000  26.0391200  79.5369360
  39.5273400  25.3891660  78.7012260  48.6256840  19.4643120  89.2030950
  48.9937660  18.6438330  89.5310520  47.7655040  19.5245010  89.6186600
  51.9918870  18.4200060  80.0118510  51.3632030  18.5245730  79.2976740
  51.4970790  18.6396840  80.8012390  46.4377010  30.1405650  77.4452490
  46.5388990  29.9369640  76.5154470  45.5378750  29.8863930  77.6500270
  43.9602900  20.6986010  81.4276390  43.2519050  21.1672350  81.8690000
  44.2447380  20.0408020  82.0621580  45.5858830  22.1182710  89.4268920
  46.0844080  22.5928530  90.0920770  45.7281780  21.1946230  89.6338950
  47.9918330  17.4236670  82.8672180  47.8686110  17.4422800  81.9181690
  48.9402890  17.4715610  82.9870580  45.0795120  32.6591970  82.1400160
  45.3336620  32.6213360  81.2179530  44.1307600  32.5325300  82.1328410
  42.1637920  19.0071090  78.8027100  43.0128450  19.4441240  78.7367290
  41.7969190  19.3191350  79.6299160  52.7925690  18.3350670  90.2697310
  52.2899290  19.0756070  90.6091120  53.6082350  18.7234670  89.9534100
  51.0847700  23.5783850  83.7158670  50.1437840  23.5934080  83.8906360
  51.3991770  22.7919810  84.1618970  41.0629340  25.2603450  77.2762630
  41.8292610  25.1484810  77.8388060  41.1404030  24.5641420  76.6239400
  39.7576100  22.6928520  77.9595520  39.8379690  21.7456030  78.0712920
  40.6495850  23.0235400  78.0656180  53.0873280  30.7492700  85.3912930
  53.2120700  31.5723870  85.8636740  53.9538840  30.5383430  85.0437080
  40.5590810  32.8423910  85.0630060  41.2953290  32.2939370  85.3338630
  40.9431730  33.7079920  84.9236050  37.4436290  28.9097480  80.9371570
  36.5176070  29.1518620  80.9276980  37.9092720  29.7371740  80.8156320
  43.6693120  32.0154220  76.8855630  44.4621730  32.3043050  76.4337420
  43.1497470  31.5846390  76.2068110  49.8314090  31.8630140  92.8100460
  50.7835840  31.7788160  92.7600700  49.6842310  32.5271850  93.4834250
  52.7223290  31.2424350  78.3092370  52.4364800  30.8289490  77.4946550
  52.5242840  32.1712060  78.1892890  37.2846900  24.5143440  93.1951690
  37.7885920  23.9350720  93.7667920  36.5454320  24.7983670  93.7328060
  44.1870520  27.2357630  76.7497980  44.0821160  26.6209980  77.4759360
  44.0194740  26.7123520  75.9660990  44.3384840  25.9214430  92.7287210
  43.5730510  26.4899430  92.6441880  44.5200800  25.6290640  91.8355440
  47.4273250  26.2977660  77.3539970  46.8783350  26.7446960  77.9982710
  48.0492510  25.7926910  77.8777640  51.4808190  27.6519760  93.2862230
  52.2217660  27.9895520  92.7829690  50.7180870  27.8211820  92.7332000
  43.0948370  25.2568580  79.2505270  43.5164790  25.0908450  80.0936660
  43.2199210  24.4468810  78.7560410  41.2575790  21.2365130  92.0576250
  40.7272250  20.7456080  91.4299590  41.9263860  21.6649330  91.5234180
  45.6076010  24.2806190  76.4982370  46.1281670  23.5655210  76.1323520
  46.2544410  24.9192060  76.7982880  50.1553850  25.7034590  91.8217440
  50.5694870  25.8579670  92.6707860  49.2204850  25.8289810  91.9843220
  50.6276020  23.0430750  93.8256590  51.2096790  22.2883070  93.7377070
  50.8037790  23.5738190  93.0488070  41.7448090  18.2027500  92.1373540
  41.6504960  17.5848250  91.4124410  41.1645480  18.9293790  91.9103450
  44.5109530  16.7600740  89.1700930  44.0626830  16.7825000  88.3246480
  43.8774730  16.3619760  89.7671230  44.9169080  25.6555070  89.7913370
  45.3357190  26.4987800  89.6189610  43.9977710  25.7927110  89.5620150
  47.2532980  23.3871250  91.1751210  47.3729190  22.7912390  91.9146050
  48.1126980  23.4240940  90.7552510  49.5920880  23.9408440  89.7513720
  49.0656100  24.4651060  89.1478860  49.9352220  24.5735830  90.3823450
  41.9907270  21.3301810  76.1963430  41.7896330  20.4669170  76.5576770
  41.8199320  21.2435170  75.2585030  42.7676500  31.9608080  90.9071100
  42.2297590  32.6854140  90.5879800  43.0210460  31.4838420  90.1168440
  44.0201750  19.9292600  92.4327030  44.6101440  19.6208450  93.1204850
  43.2021990  19.4572350  92.5886930  48.8395180  19.5458410  92.6660050
  48.1510700  18.8839950  92.6010040  49.5601200  19.0996680  93.1108510
  49.4695580  16.1410040  78.7250310  49.7497870  15.2977940  79.0809730
  48.6961310  16.3733150  79.2389060  40.7890070  18.4302430  76.1841310
  41.0915970  18.4369860  75.2760460  41.5284660  18.0800290  76.6808970
  45.6238710  33.1959290  91.1657750  45.5497410  34.0994430  91.4730120
  44.7217550  32.8771190  91.1379820  44.0075000  17.3737050  77.1697510
  43.6597000  16.6961040  76.5899960  44.2087770  16.9126560  77.9840900
  46.1724040  32.3617800  78.7884110  47.0674830  32.7002770  78.8102870
  46.2041670  31.6397210  78.1608390  39.8120200  27.7344850  77.0171110
  40.2495070  28.2774520  77.6728690  40.2967930  26.9091800  77.0267450
  37.0266000  30.5233880  84.4691370  37.3569010  29.6554940  84.2370010
  37.4557000  30.7292400  85.2996330  41.6227920  28.8542890  82.1293340
  41.3223460  28.7307860  83.0297250  41.5165410  27.9951480  81.7209070
  37.5156210  31.3904470  87.2073000  37.0787200  31.5705270  88.0397150
  38.0833890  32.1479090  87.0654720  53.1518390  30.8921470  91.4950310
  52.5520380  30.9514030  90.7514230  53.2812290  29.9526450  91.6247160
  54.3919840  28.6339290  76.8320020  53.5612800  28.7015940  77.3027250
  54.5691670  29.5243410  76.5286880  53.8476300  25.3786770  79.3354220
  54.6095210  25.9483420  79.4413910  53.8630670  24.8113970  80.1062530
  37.3480640  23.9024700  83.5661880  36.6929480  23.6336340  82.9221580
  38.1858590  23.7929180  83.1163860  54.8536270  26.2336870  84.1796150
  55.2245100  25.4504190  83.7732120  55.4938200  26.9225970  84.0013450
  51.8370030  27.6173450  89.5926470  51.0229870  28.0470610  89.8552260
  52.2444230  28.2291860  88.9795520  53.8995470  25.6721140  76.4926740
  54.1744310  26.5800020  76.3645960  53.7106210  25.6083670  77.4288730
  50.2971080  18.6965990  77.7880370  50.7155960  18.5096970  76.9477030
  49.9907140  17.8445040  78.0983300  53.7960810  23.6090130  81.4856170
  53.4204410  22.8418060  81.0537460  53.0663930  23.9912830  81.9731100
  38.3856570  24.2877270  88.1065220  38.7529610  24.2004670  88.9861240
  37.8167390  23.5243820  88.0072080  53.1860430  22.7561650  91.1195690
  52.9546520  22.5274400  90.2193640  53.4464980  23.6761200  91.0740580
  37.9372570  21.1986360  92.0123640  37.0428620  21.1653120  92.3517350
  38.4770120  21.3973150  92.7774890  36.5618720  21.1123630  79.5087210
  35.6582800  21.3753830  79.3338870  37.0459340  21.3834800  78.7287170
  53.0711770  21.8347620  84.7863410  53.5949250  21.3410270  84.1553580
  53.6571190  21.9697980  85.5310980  53.2501490  21.9187490  88.3082960
  52.3004200  21.8851030  88.4227950  53.4314500  22.8287600  88.0732730
  39.1045930  20.1689170  77.4181590  39.8137630  19.7472390  76.9328870
  38.3885870  20.2364400  76.7864940  38.7520090  16.2228500  76.4584240
  39.4748220  16.7637440  76.7765460  39.0244610  15.9491920  75.5825780
  52.5611740  21.0920970  80.7255820  53.0570860  20.8591840  81.5104700
  52.3627810  20.2532810  80.3093460  38.4412280  15.4734690  86.3606860
  39.0888470  14.9232070  85.9202020  38.8614120  15.7277840  87.1822670
  53.9898900  19.7281920  83.2593500  53.8798180  19.5737960  84.1975770
  54.7506490  19.2002860  83.0168910  52.3364620  15.6676050  89.7176500
  52.9736840  16.2810190  90.0835690  52.4839510  15.7036710  88.7725730
  54.8789170  17.5589840  76.4999640  55.8038480  17.4271020  76.2917930
  54.8564960  17.6382660  77.4536090  54.9527660  18.3300500  79.1256350
  54.1579160  18.2645620  79.6549260  55.1570940  19.2651140  79.1141700
  51.8946080  32.3692050  83.1194740  52.4905150  32.0476620  82.4429160
  52.1524230  31.8963870  83.9108010  38.1944280  15.6290360  89.1032180
  37.8459100  16.0854180  89.8690360  37.8631980  14.7347490  89.1854610
  43.5014680  30.3569550  88.8695090  43.2606040  30.6244110  87.9825610
  44.4417320  30.5275280  88.9245950  45.7069100  16.8202240  92.6251600
  45.6457990  17.4124070  93.3747010  46.6469480  16.7128200  92.4801860
  48.3443660  16.4772300  92.2643890  48.9584070  16.7951590  91.6024970
  48.8893220  15.9920890  92.8839750  54.7618840  32.3763930  89.6705730
  54.2677120  32.7732800  88.9532860  54.1532130  31.7513140  90.0643010
  38.8664920  15.1566560  92.3782950  39.4147910  14.9754610  91.6149060
  38.9320230  14.3660670  92.9139260  39.6396680  31.7472210  90.3883150
  39.0457000  31.6156910  91.1273190  39.6320520  30.9110350  89.9225250
  49.0851700  15.0404440  88.5913180  48.2111540  15.3739550  88.3886110
  48.9762450  14.5677620  89.4165050  49.9923680  17.2475310  89.9754900
  49.6637040  16.4327070  89.5956630  50.9405980  17.2045120  89.8520590
  52.4458290  33.0187350  86.9492470  51.9861260  33.7703160  86.5750490
  51.8170750  32.2993820  86.8907270  39.2708910  29.1130590  89.3391190
  38.5442970  28.4935880  89.2717140  39.3318060  29.5071200  88.4689270
  42.8754010  31.3275590  86.1240600  43.3919030  30.7162950  85.5988860
  43.5251390  31.8304370  86.6151610  45.6149510  32.2184080  86.9509580
  45.9027320  31.9638380  86.0742590  46.1272730  31.6661440  87.5415150
  46.8326520  15.9574280  87.5306090  46.0498310  16.4319780  87.8102850
  46.5389450  15.0529110  87.4219270  51.3847590  16.6597380  85.5755180
  51.8255680  16.6042480  84.7276780  51.1155180  17.5755390  85.6465360
  53.2486160  16.2912620  83.5864000  53.1874560  15.3473840  83.4395020
  54.0278190  16.3992710  84.1317460  37.5538910  32.4304980  82.5487950
  37.3860950  31.7975660  83.2469840  36.6873420  32.6364380  82.1982140
  38.1766930  16.2621760  80.0519810  38.9346290  16.3750640  79.4783840
  37.7144100  17.0990960  80.0063240  44.7180740  18.3761030  83.0422120
  43.9055250  18.0017920  82.7018000  45.2222380  17.6206110  83.3443310
  49.2205720  15.0403480  84.2805190  49.8235090  15.6123690  84.7553710
  48.4798710  15.6042920  84.0579090  52.3640320  15.4425040  79.5545470
  52.5590950  16.3408490  79.8212900  51.5770190  15.2112120  80.0478420
  39.1601610  31.1238210  79.9938090  38.6349230  31.5046240  79.2900050
  39.0846190  31.7488980  80.7147800  40.5492080  16.7885810  78.5921780
  41.0784840  16.0015610  78.4629730  41.1820400  17.4677000  78.8257310
  42.7429920  16.5260950  81.6467170  42.1132660  15.8248260  81.8137300
  42.2035060  17.2865080  81.4300330  53.9166930  32.6825750  81.3152030
  54.0919120  31.9963490  80.6712950  53.2188500  33.2072800  80.9228700
  41.7594580  33.0720590  78.8687340  42.4913400  32.7879870  78.3211230
  42.0188250  32.8333870  79.7586720  40.9209370  29.1885320  78.8733670
  40.2918250  29.6570420  79.4219500  41.0357200  28.3434540  79.3079860
  48.3759090  23.2390980  65.0234870  48.2953140  22.3245590  64.7526580
  47.9623510  23.7358050  64.3174580  46.5077130  25.0170000  66.9044140
  45.7319230  24.5370440  67.1942710  47.1590060  24.3375650  66.7300300
  40.5242960  25.3289810  67.7819900  39.6927840  25.0738520  68.1816410
  41.1323940  25.4000580  68.5177820  40.5044220  29.3629900  67.9777920
  40.8072260  28.4727640  67.7988140  41.2487810  29.9200120  67.7500170
  38.9334910  20.2891700  61.5662290  38.0451610  20.6307670  61.4642170
  39.2176100  20.0892020  60.6743120  36.8967920  22.8897350  67.4501990
  37.4684030  22.1219550  67.4505630  36.8969460  23.1886110  66.5408600
  38.1392790  18.2981710  69.2370920  37.9595630  17.4007460  69.5173680
  37.7372870  18.8453580  69.9117870  46.9791290  20.4997570  67.1383230
  47.3556110  19.6269450  67.0256900  46.8810800  20.8356270  66.2473670
  41.1096300  18.8723200  62.6000670  41.2163050  19.7726930  62.9069430
  40.1988660  18.8241170  62.3095320  38.7579460  20.7942210  67.8453260
  39.4389570  21.0580580  68.4640660  38.4427510  19.9543080  68.1791270
  42.9504030  21.8409570  66.9325850  43.4582250  22.3390540  67.5730870
  43.4817270  21.0644770  66.7565210  55.0514960  20.0114760  70.6355200
  54.3467130  20.3996470  70.1170310  55.3172880  20.7065050  71.2376130
  41.2340130  16.4808130  71.1989270  41.2358570  16.9980520  70.3935170
  40.4044440  16.0038310  71.1759200  42.4842980  26.1203310  69.3762770
  42.1512360  26.7472230  70.0183840  42.6609660  26.6465190  68.5964440
  50.9976890  19.9348390  66.8439110  50.2932460  20.2233280  67.4242220
  51.3589050  20.7448500  66.4838670  40.9155460  18.1918090  69.2059720
  41.2572270  19.0360140  68.9113590  39.9771270  18.3401830  69.3225060
  41.6962080  28.0884110  71.1911950  42.3136080  28.7635190  70.9096400
  40.8355200  28.4972090  71.0999450  36.9894420  27.2783970  60.0718800
  36.6122400  27.7671070  59.3403700  37.2467490  27.9509250  60.7025330
  52.6139670  29.5523520  69.1066590  51.9303190  30.2222630  69.0983260
  53.1533960  29.7504170  68.3411450  54.0663810  19.3803180  67.2348320
  53.1188720  19.4142160  67.3663750  54.3913800  20.1942130  67.6197680
  44.5983350  15.6800360  65.5304310  44.9058330  15.1247250  64.8139810
  43.6684050  15.8144820  65.3477300  49.5483850  26.2997490  69.1494380
  49.9652640  26.0857600  68.3147840  50.2723670  26.5570280  69.7203000
  53.4945950  24.6984710  69.2410620  52.6664580  24.7677800  68.7660750
  54.0896430  25.2839020  68.7726450  50.4587960  21.4854030  70.1865490
  50.0459140  22.3107740  70.4405480  49.7263910  20.8999070  69.9941850
  42.5920750  24.2713930  65.0484160  42.1877750  23.5591180  64.5530060
  42.6783870  23.9267170  65.9372200  41.3049370  21.0457140  68.8283200
  41.8563960  21.1552480  68.0536450  41.8192880  21.4194740  69.5438430
  51.1488060  31.5313360  70.8746470  50.6718620  32.3385550  70.6819080
  50.4649850  30.8791690  71.0272680  42.1520880  27.6963180  73.8631170
  41.2549410  27.9203150  74.1104570  42.1773750  27.8198120  72.9142570
  40.9792100  24.5676500  72.4388540  40.8399870  25.4399300  72.8075940
  40.0973460  24.2249310  72.2936480  42.7772450  30.5098200  74.6473690
  42.7487880  30.9141150  73.7802120  42.6137420  29.5808560  74.4845290
  39.2925380  23.1658910  62.5490810  39.1722980  23.8921000  61.9372080
  38.9826270  22.3961820  62.0718720  54.7287270  31.2925300  75.9437860
  55.2046990  31.7708190  76.6226940  55.3494430  31.2242790  75.2183360
  36.9310750  26.3374050  68.3559450  37.0091170  26.4722820  67.4115170
  37.5452430  25.6289940  68.5487570  38.1758380  28.0374240  64.7665630
  37.7686460  28.1788830  63.9119230  39.0671390  27.7534400  64.5636840
  54.1320520  28.4838150  73.1037870  54.2583580  28.2450030  72.1855050
  54.1741900  27.6522690  73.5759950  47.9937260  32.1866150  71.6732680
  48.5081930  32.0974160  72.4755110  47.1506340  32.5325850  71.9660590
  53.9844530  20.5370610  74.0687610  53.3688800  21.0450280  73.5403070
  53.6640950  19.6368940  74.0113550  36.9870270  27.3788220  70.8953910
  37.1501310  26.9093580  70.0773280  37.4522720  26.8711780  71.5602750
  41.7589040  16.5093980  65.9314480  41.3157190  17.2903520  65.5999000
  42.3174030  16.8323870  66.6385420  46.0458850  19.3762500  71.5349800
  45.5838220  19.5845520  72.3469740  45.6436960  18.5621850  71.2320470
  51.0463360  20.5971450  72.6646460  50.1956950  20.2977200  72.9855530
  50.8865150  20.8413460  71.7530280  48.1413070  22.0973200  74.7645250
  48.4666480  21.2636950  74.4247480  48.9293400  22.6201720  74.9123580
  44.8747860  16.1304680  60.8120310  44.2502040  16.1264550  61.5373620
  44.7877980  15.2635640  60.4156280  43.7964940  17.0541310  67.7904080
  44.0937270  17.9604140  67.7096100  44.3450500  16.5660090  67.1763650
  41.5503260  21.6327550  63.6595730  41.3244180  21.4164720  64.5642350
  40.7695790  22.0656010  63.3141700  43.9902470  22.5313130  74.3256000
  43.8946070  21.5907860  74.1756400  44.8334450  22.7528200  73.9304070
  47.3865890  20.2754460  64.2889660  47.7795460  20.5926660  63.4758350
  47.7482740  19.3966340  64.4034180  39.1213010  18.9426800  72.4789780
  38.7276400  19.7902010  72.6862560  38.4331410  18.3053170  72.6698420
  45.6958060  19.0261770  75.5486520  45.0056380  18.8333970  76.1832610
  46.4390360  19.3096410  76.0810820  36.4230060  16.8655260  66.5119860
  36.1343110  17.4358120  67.2244840  37.1675820  16.3859710  66.8751090
  36.6100290  20.8075380  57.7222580  36.5274960  21.7506140  57.8637570
  36.2583350  20.6650290  56.8434930  47.9721030  22.8660210  68.3840440
  47.2402150  23.3747020  68.7330540  47.5745370  22.0490190  68.0829220
  44.4098420  19.5414410  66.7892930  44.4134480  19.1004360  65.9397470
  45.3049540  19.8631740  66.8964750  40.2600800  19.4240900  65.7487140
  39.9200850  19.9016130  66.5054190  39.4978120  18.9706020  65.3888240
  44.4718570  20.5426490  59.7799690  44.5931390  20.5012970  60.7285510
  44.0867080  21.4050640  59.6246420  48.4346940  18.3193890  67.7963380
  48.4519680  18.7702540  68.6405230  48.1862520  17.4199530  68.0096820
  43.4840070  22.8527630  59.1782990  42.9156970  22.4045880  58.5518900
  44.1929070  23.2120410  58.6448140  51.8617690  15.7326070  73.6349760
  52.1863460  15.0015730  74.1607740  51.8974200  15.4139710  72.7330750
  38.5609250  26.7539650  73.0549720  38.1764040  26.1133320  73.6532680
  38.8721440  27.4575770  73.6244450  44.7106390  23.6016190  68.5358340
  45.0776520  23.1274760  69.2819680  44.5211450  24.4757760  68.8766680
  37.5746880  18.3459880  64.6651810  37.2893800  17.9815550  65.5030430
  37.5125740  17.6140340  64.0514950  42.5005760  22.6424830  70.8542550
  42.1962830  23.5216810  71.0792910  43.4552220  22.7024620  70.8899990
  51.7875530  25.8451180  67.2435790  52.5074650  26.3406470  66.8531900
  51.5857350  25.1669070  66.5989660  47.1694330  25.9160240  73.1304790
  47.1031640  24.9955910  72.8762380  46.5399470  26.0135680  73.8449430
  41.0724950  26.5166200  65.0888210  41.5903620  25.7134460  65.0345100
  40.6208970  26.4545340  65.9305040  38.5569490  23.4827570  72.0013910
  38.1984430  24.1481420  72.5887250  38.2624050  22.6511120  72.3726530
  41.7582610  23.9411810  74.8853460  41.4582750  24.0868990  73.9881280
  42.5293850  23.3817100  74.7926850  47.1011060  28.7380810  72.8808590
  47.1155600  27.8061770  72.6627500  46.3936160  28.8240570  73.5198360
  53.3122270  25.3788150  72.2277170  52.5870460  25.9716930  72.0306560
  53.8397730  25.3711690  71.4290540  37.0677540  23.4818830  58.6248510
  37.9372390  23.7643630  58.9084430  36.5767860  24.2954700  58.5097320
  40.1324130  15.2129690  63.2179310  40.0038760  15.2047590  64.1664230
  39.3086150  15.5512780  62.8670320  47.8077040  28.3830730  68.6926540
  48.4499270  27.6823890  68.8058710  48.3326390  29.1629170  68.5123430
  49.5814660  29.1825630  71.8962600  49.9170900  29.7692320  72.5740520
  48.6615000  29.0518340  72.1260390  37.1318060  16.9720810  72.6786010
  36.4176580  17.1717730  73.2838620  37.5513100  16.1960380  73.0500810
  37.4190650  30.9601070  73.6652540  37.5281770  30.0195810  73.5247930
  36.7671210  31.2255820  73.0166270  45.4103240  29.2316960  75.0650660
  45.0900110  28.5126200  75.6096350  44.7361600  29.9072030  75.1386720
  48.6256840  19.4643120  70.4287460  48.9937660  18.6438330  70.7567030
  47.7655040  19.5245010  70.8443110  43.9602900  20.6986010  62.6532900
  43.2519050  21.1672350  63.0946510  44.2447380  20.0408020  63.2878090
  45.5858830  22.1182710  70.6525430  46.0844080  22.5928530  71.3177280
  45.7281780  21.1946230  70.8595460  47.9918330  17.4236670  64.0928690
  47.8686110  17.4422800  63.1438200  48.9402890  17.4715610  64.2127090
  42.1637920  19.0071090  60.0283610  43.0128450  19.4441240  59.9623800
  41.7969190  19.3191350  60.8555670  52.7925690  18.3350670  71.4953820
  52.2899290  19.0756070  71.8347630  53.6082350  18.7234670  71.1790610
  39.7576100  22.6928520  59.1852030  39.8379690  21.7456030  59.2969430
  40.6495850  23.0235400  59.2912690  53.0873280  30.7492700  66.6169440
  53.2120700  31.5723870  67.0893250  53.9538840  30.5383430  66.2693590
  37.4436290  28.9097480  62.1628080  36.5176070  29.1518620  62.1533490
  37.9092720  29.7371740  62.0412830  48.4013720  28.1349850  75.4247560
  47.7951880  28.1581450  74.6843310  48.0967830  27.4032890  75.9614810
  49.8314090  31.8630140  74.0356970  50.7835840  31.7788160  73.9857210
  49.6842310  32.5271850  74.7090760  37.2846900  24.5143440  74.4208200
  37.7885920  23.9350720  74.9924430  36.5454320  24.7983670  74.9584570
  44.3384840  25.9214430  73.9543720  43.5730510  26.4899430  73.8698390
  44.5200800  25.6290640  73.0611950  51.4808190  27.6519760  74.5118740
  52.2217660  27.9895520  74.0086200  50.7180870  27.8211820  73.9588510
  39.3169980  22.6573030  75.3158270  39.3575320  22.3586900  76.2243500
  40.1715480  23.0580640  75.1565790  41.2575790  21.2365130  73.2832760
  40.7272250  20.7456080  72.6556100  41.9263860  21.6649330  72.7490690
  50.1553850  25.7034590  73.0473950  50.5694870  25.8579670  73.8964370
  49.2204850  25.8289810  73.2099730  50.6276020  23.0430750  75.0513100
  51.2096790  22.2883070  74.9633580  50.8037790  23.5738190  74.2744580
  41.7448090  18.2027500  73.3630050  41.6504960  17.5848250  72.6380920
  41.1645480  18.9293790  73.1359960  44.5109530  16.7600740  70.3957440
  44.0626830  16.7825000  69.5502990  43.8774730  16.3619760  70.9927740
  44.9169080  25.6555070  71.0169880  45.3357190  26.4987800  70.8446120
  43.9977710  25.7927110  70.7876660  47.2532980  23.3871250  72.4007720
  47.3729190  22.7912390  73.1402560  48.1126980  23.4240940  71.9809020
  49.5920880  23.9408440  70.9770230  49.0656100  24.4651060  70.3735370
  49.9352220  24.5735830  71.6079960  41.9907270  21.3301810  57.4219940
  41.7896330  20.4669170  57.7833280  41.8199320  21.2435170  56.4841540
  42.7676500  31.9608080  72.1327610  42.2297590  32.6854140  71.8136310
  43.0210460  31.4838420  71.3424950  44.0201750  19.9292600  73.6583540
  44.6101440  19.6208450  74.3461360  43.2021990  19.4572350  73.8143440
  48.8395180  19.5458410  73.8916560  48.1510700  18.8839950  73.8266550
  49.5601200  19.0996680  74.3365020  40.7890070  18.4302430  57.4097820
  41.0915970  18.4369860  56.5016970  41.5284660  18.0800290  57.9065480
  45.6238710  33.1959290  72.3914260  45.5497410  34.0994430  72.6986630
  44.7217550  32.8771190  72.3636330  44.0075000  17.3737050  58.3954020
  43.6597000  16.6961040  57.8156470  44.2087770  16.9126560  59.2097410
  37.0266000  30.5233880  65.6947880  37.3569010  29.6554940  65.4626520
  37.4557000  30.7292400  66.5252840  37.5156210  31.3904470  68.4329510
  37.0787200  31.5705270  69.2653660  38.0833890  32.1479090  68.2911230
  53.1518390  30.8921470  72.7206820  52.5520380  30.9514030  71.9770740
  53.2812290  29.9526450  72.8503670  37.3480640  23.9024700  64.7918390
  36.6929480  23.6336340  64.1478090  38.1858590  23.7929180  64.3420370
  51.8370030  27.6173450  70.8182980  51.0229870  28.0470610  71.0808770
  52.2444230  28.2291860  70.2052030  38.3856570  24.2877270  69.3321730
  38.7529610  24.2004670  70.2117750  37.8167390  23.5243820  69.2328590
  53.1860430  22.7561650  72.3452200  52.9546520  22.5274400  71.4450150
  53.4464980  23.6761200  72.2997090  37.9372570  21.1986360  73.2380150
  37.0428620  21.1653120  73.5773860  38.4770120  21.3973150  74.0031400
  51.6248500  17.9818080  75.1231900  52.5018680  17.9901480  75.5065900
  51.6369340  17.2448920  74.5124250  36.5618720  21.1123630  60.7343720
  35.6582800  21.3753830  60.5595380  37.0459340  21.3834800  59.9543680
  53.2501490  21.9187490  69.5339470  52.3004200  21.8851030  69.6484460
  53.4314500  22.8287600  69.2989240  39.1045930  20.1689170  58.6438100
  39.8137630  19.7472390  58.1585380  38.3885870  20.2364400  58.0121450
  38.7520090  16.2228500  57.6840750  39.4748220  16.7637440  58.0021970
  39.0244610  15.9491920  56.8082290  38.4412280  15.4734690  67.5863370
  39.0888470  14.9232070  67.1458530  38.8614120  15.7277840  68.4079180
  52.3364620  15.6676050  70.9433010  52.9736840  16.2810190  71.3092200
  52.4839510  15.7036710  69.9982240  38.1944280  15.6290360  70.3288690
  37.8459100  16.0854180  71.0946870  37.8631980  14.7347490  70.4111120
  39.8008650  28.8009960  74.4941880  39.7578280  28.4302870  75.3756340
  39.9319660  29.7387530  74.6343700  43.5014680  30.3569550  70.0951600
  43.2606040  30.6244110  69.2082120  44.4417320  30.5275280  70.1502460
  45.7069100  16.8202240  73.8508110  45.6457990  17.4124070  74.6003520
  46.6469480  16.7128200  73.7058370  48.3443660  16.4772300  73.4900400
  48.9584070  16.7951590  72.8281480  48.8893220  15.9920890  74.1096260
  54.7618840  32.3763930  70.8962240  54.2677120  32.7732800  70.1789370
  54.1532130  31.7513140  71.2899520  38.8664920  15.1566560  73.6039460
  39.4147910  14.9754610  72.8405570  38.9320230  14.3660670  74.1395770
  39.6396680  31.7472210  71.6139660  39.0457000  31.6156910  72.3529700
  39.6320520  30.9110350  71.1481760  49.0851700  15.0404440  69.8169690
  48.2111540  15.3739550  69.6142620  48.9762450  14.5677620  70.6421560
  49.9923680  17.2475310  71.2011410  49.6637040  16.4327070  70.8213140
  50.9405980  17.2045120  71.0777100  52.4458290  33.0187350  68.1748980
  51.9861260  33.7703160  67.8007000  51.8170750  32.2993820  68.1163780
  39.2708910  29.1130590  70.5647700  38.5442970  28.4935880  70.4973650
  39.3318060  29.5071200  69.6945780  46.8326520  15.9574280  68.7562600
  46.0498310  16.4319780  69.0359360  46.5389450  15.0529110  68.6475780
  51.3847590  16.6597380  66.8011690  51.8255680  16.6042480  65.9533290
  51.1155180  17.5755390  66.8721870  53.2486160  16.2912620  64.8120510
  53.1874560  15.3473840  64.6651530  54.0278190  16.3992710  65.3573970
  38.1766930  16.2621760  61.2776320  38.9346290  16.3750640  60.7040350
  37.7144100  17.0990960  61.2319750  44.7180740  18.3761030  64.2678630
  43.9055250  18.0017920  63.9274510  45.2222380  17.6206110  64.5699820
  49.2205720  15.0403480  65.5061700  49.8235090  15.6123690  65.9810220
  48.4798710  15.6042920  65.2835600  40.5492080  16.7885810  59.8178290
  41.0784840  16.0015610  59.6886240  41.1820400  17.4677000  60.0513820
  42.7429920  16.5260950  62.8723680  42.1132660  15.8248260  63.0393810
  42.2035060  17.2865080  62.6556840  45.6821870  33.1400180  75.5434290
  46.6089180  32.9044450  75.5870250  45.6672300  33.9672180  75.0620320
  42.8685480  15.8044930  75.3076170  42.5869750  16.3078530  74.5436990
  43.2505180  15.0066680  74.9418300  49.4700940  15.2198510  75.8856640
  49.3566390  15.5393120  76.7808160  50.2870680  15.6211020  75.5893920
  52.2499430  32.3670040  75.3675330  53.0424750  31.8719270  75.1601290
  52.5432580  33.0460180  75.9750940  39.1213010  18.9426800  53.7046290
  38.7276400  19.7902010  53.9119070  38.4331410  18.3053170  53.8954930
  36.4230060  16.8655260  47.7376370  36.1343110  17.4358120  48.4501350
  37.1675820  16.3859710  48.1007600  36.6100290  20.8075380  38.9479090
  36.5274960  21.7506140  39.0894080  36.2583350  20.6650290  38.0691440
  37.5746880  18.3459880  45.8908320  37.2893800  17.9815550  46.7286940
  37.5125740  17.6140340  45.2771460  40.1324130  15.2129690  44.4435820
  40.0038760  15.2047590  45.3920740  39.3086150  15.5512780  44.0926830
  39.3169980  22.6573030  56.5414780  39.3575320  22.3586900  57.4500010
  40.1715480  23.0580640  56.3822300  40.7890070  18.4302430  38.6354330
  41.0915970  18.4369860  37.7273480  41.5284660  18.0800290  39.1321990
  44.0075000  17.3737050  39.6210530  43.6597000  16.6961040  39.0412980
  44.2087770  16.9126560  40.4353920  37.9372570  21.1986360  54.4636660
  37.0428620  21.1653120  54.8030370  38.4770120  21.3973150  55.2287910
  36.5618720  21.1123630  41.9600230  35.6582800  21.3753830  41.7851890
  37.0459340  21.3834800  41.1800190  38.7520090  16.2228500  38.9097260
  39.4748220  16.7637440  39.2278480  39.0244610  15.9491920  38.0338800
  38.4412280  15.4734690  48.8119880  39.0888470  14.9232070  48.3715040
  38.8614120  15.7277840  49.6335690  54.8789170  17.5589840  38.9512660
  55.8038480  17.4271020  38.7430950  54.8564960  17.6382660  39.9049110
  38.1944280  15.6290360  51.5545200  37.8459100  16.0854180  52.3203380
  37.8631980  14.7347490  51.6367630  45.7069100  16.8202240  55.0764620
  45.6457990  17.4124070  55.8260030  46.6469480  16.7128200  54.9314880
  38.8664920  15.1566560  54.8295970  39.4147910  14.9754610  54.0662080
  38.9320230  14.3660670  55.3652280  38.1766930  16.2621760  42.5032830
  38.9346290  16.3750640  41.9296860  37.7144100  17.0990960  42.4576260
  49.2205720  15.0403480  46.7318210  49.8235090  15.6123690  47.2066730
  48.4798710  15.6042920  46.5092110  52.3640320  15.4425040  42.0058490
  52.5590950  16.3408490  42.2725920  51.5770190  15.2112120  42.4991440
  40.5492080  16.7885810  41.0434800  41.0784840  16.0015610  40.9142750
  41.1820400  17.4677000  41.2770330  42.8685480  15.8044930  56.5332680
  42.5869750  16.3078530  55.7693500  43.2505180  15.0066680  56.1674810
  38.9334910  20.2891700  24.0175310  38.0451610  20.6307670  23.9155190
  39.2176100  20.0892020  23.1256140  36.8967920  22.8897350  29.9015010
  37.4684030  22.1219550  29.9018650  36.8969460  23.1886110  28.9921620
  38.1392790  18.2981710  31.6883940  37.9595630  17.4007460  31.9686700
  37.7372870  18.8453580  32.3630890  41.1096300  18.8723200  25.0513690
  41.2163050  19.7726930  25.3582450  40.1988660  18.8241170  24.7608340
  38.7579460  20.7942210  30.2966280  39.4389570  21.0580580  30.9153680
  38.4427510  19.9543080  30.6304290  41.2340130  16.4808130  33.6502290
  41.2358570  16.9980520  32.8448190  40.4044440  16.0038310  33.6272220
  47.6211220  26.5927440  25.1492190  47.0028490  27.0576890  24.5854910
  48.1334470  27.2854920  25.5661700  40.9155460  18.1918090  31.6572740
  41.2572270  19.0360140  31.3626610  39.9771270  18.3401830  31.7738080
  36.9894420  27.2783970  22.5231820  36.6122400  27.7671070  21.7916720
  37.2467490  27.9509250  23.1538350  44.5983350  15.6800360  27.9817330
  44.9058330  15.1247250  27.2652830  43.6684050  15.8144820  27.7990320
  51.4443830  28.1183870  25.3614960  51.3340160  27.1758200  25.4864380
  51.4412080  28.4799510  26.2477720  46.9864110  23.7449190  24.7177450
  46.0593390  23.6786570  24.9465920  47.1388930  24.6829320  24.6032690
  46.9733190  20.0166190  21.7144610  46.0336860  20.1780150  21.7997070
  47.2916450  20.7351870  21.1680600  51.0161400  25.3069490  25.2212700
  50.3973820  24.9689040  24.5739000  50.9985850  24.6629250  25.9291890
  41.3049370  21.0457140  31.2796220  41.8563960  21.1552480  30.5049470
  41.8192880  21.4194740  31.9951450  49.1926100  24.5456300  22.2285450
  49.6319380  23.7078730  22.0823270  49.9054520  25.1785700  22.3149590
  47.3021480  29.4852370  26.1966690  47.7417390  30.2276700  25.7822080
  47.2408370  29.7278940  27.1205650  52.7743240  15.7999110  20.5426490
  52.4615900  15.8925940  21.4425560  53.5355710  16.3780140  20.4923920
  39.2925380  23.1658910  25.0003830  39.1722980  23.8921000  24.3885100
  38.9826270  22.3961820  24.5231740  38.1758380  28.0374240  27.2178650
  37.7686460  28.1788830  26.3632250  39.0671390  27.7534400  27.0149860
  49.6717790  29.9809050  22.1127700  48.9782950  29.9786340  21.4529980
  50.4140650  29.5568370  21.6821870  41.7589040  16.5093980  28.3827500
  41.3157190  17.2903520  28.0512020  42.3174030  16.8323870  29.0898440
  44.8747860  16.1304680  23.2633330  44.2502040  16.1264550  23.9886640
  44.7877980  15.2635640  22.8669300  43.7964940  17.0541310  30.2417100
  44.0937270  17.9604140  30.1609120  44.3450500  16.5660090  29.6276670
  41.5503260  21.6327550  26.1108750  41.3244180  21.4164720  27.0155370
  40.7695790  22.0656010  25.7654720  48.7801020  21.6390920  24.7099400
  48.1809910  22.3626720  24.5263020  49.3280630  21.5767700  23.9275850
  47.3865890  20.2754460  26.7402680  47.7795460  20.5926660  25.9271370
  47.7482740  19.3966340  26.8547200  39.1213010  18.9426800  34.9302800
  38.7276400  19.7902010  35.1375580  38.4331410  18.3053170  35.1211440
  36.4230060  16.8655260  28.9632880  36.1343110  17.4358120  29.6757860
  37.1675820  16.3859710  29.3264110  36.6100290  20.8075380  20.1735600
  36.5274960  21.7506140  20.3150590  36.2583350  20.6650290  19.2947950
  44.4098420  19.5414410  29.2405950  44.4134480  19.1004360  28.3910490
  45.3049540  19.8631740  29.3477770  40.2600800  19.4240900  28.2000160
  39.9200850  19.9016130  28.9567210  39.4978120  18.9706020  27.8401260
  44.4718570  20.5426490  22.2312710  44.5931390  20.5012970  23.1798530
  44.0867080  21.4050640  22.0759440  43.4840070  22.8527630  21.6296010
  42.9156970  22.4045880  21.0031920  44.1929070  23.2120410  21.0961160
  37.5746880  18.3459880  27.1164830  37.2893800  17.9815550  27.9543450
  37.5125740  17.6140340  26.5027970  41.0287550  26.8485820  23.9022420
  40.2549810  26.3083440  23.7421140  41.7582180  26.3292430  23.5640180
  47.2485470  17.2389140  23.8378200  46.4350080  16.7402310  23.7623510
  47.0547420  18.0787390  23.4214550  49.9633860  21.6108790  22.1340360
  50.8513480  21.9226020  21.9591700  49.9338950  20.7381040  21.7420940
  45.9594450  27.7832480  22.8128530  46.3010150  28.5274710  22.3171850
  45.1307160  28.0963600  23.1753360  52.2348130  22.9220630  21.6020220
  52.1511850  23.3534850  20.7516660  52.9542320  23.3818980  22.0347040
  53.2635380  29.7762890  24.3302350  52.6211540  29.1218510  24.6046070
  52.8766040  30.1817980  23.5543020  44.9285140  27.8646010  25.5844450
  45.6156270  28.4115220  25.9652040  44.1417560  28.4086740  25.6194060
  37.0677540  23.4818830  21.0761530  37.9372390  23.7643630  21.3597450
  36.5767860  24.2954700  20.9610340  44.2312350  24.8692040  25.1969810
  44.6875130  25.6797290  25.4230000  43.8800560  24.5515180  26.0288300
  40.1324130  15.2129690  25.6692330  40.0038760  15.2047590  26.6177250
  39.3086150  15.5512780  25.3183340  51.6532760  28.6679350  20.8678700
  51.4270340  27.9509790  21.4603340  51.2628960  28.4191790  20.0300450
  37.4348790  32.6946210  21.6423160  37.7946430  33.2935550  20.9880430
  37.2941130  33.2406100  22.4158190  37.1318060  16.9720810  35.1299030
  36.4176580  17.1717730  35.7351640  37.5513100  16.1960380  35.5013830
  51.2349010  26.5851290  22.5292860  50.9470710  27.0463980  23.3170740
  52.0301180  26.1249060  22.7977080  43.4517410  30.0777410  22.4596830
  43.4427510  30.8107100  21.8441340  42.5315770  29.8308990  22.5523790
  39.0524050  25.2992300  23.2043590  38.4452000  26.0391200  23.2138890
  39.5273400  25.3891660  22.3781790  51.9918870  18.4200060  23.6888040
  51.3632030  18.5245730  22.9746270  51.4970790  18.6396840  24.4781920
  46.4377010  30.1405650  21.1222020  46.5388990  29.9369640  20.1924000
  45.5378750  29.8863930  21.3269800  43.9602900  20.6986010  25.1045920
  43.2519050  21.1672350  25.5459530  44.2447380  20.0408020  25.7391110
  47.9918330  17.4236670  26.5441710  47.8686110  17.4422800  25.5951220
  48.9402890  17.4715610  26.6640110  42.1637920  19.0071090  22.4796630
  43.0128450  19.4441240  22.4136820  41.7969190  19.3191350  23.3068690
  41.0629340  25.2603450  20.9532160  41.8292610  25.1484810  21.5157590
  41.1404030  24.5641420  20.3008930  39.7576100  22.6928520  21.6365050
  39.8379690  21.7456030  21.7482450  40.6495850  23.0235400  21.7425710
  37.4436290  28.9097480  24.6141100  36.5176070  29.1518620  24.6046510
  37.9092720  29.7371740  24.4925850  43.6693120  32.0154220  20.5625160
  44.4621730  32.3043050  20.1106950  43.1497470  31.5846390  19.8837640
  52.7223290  31.2424350  21.9861900  52.4364800  30.8289490  21.1716080
  52.5242840  32.1712060  21.8662420  44.1870520  27.2357630  20.4267510
  44.0821160  26.6209980  21.1528890  44.0194740  26.7123520  19.6430520
  47.4273250  26.2977660  21.0309500  46.8783350  26.7446960  21.6752240
  48.0492510  25.7926910  21.5547170  43.0948370  25.2568580  22.9274800
  43.5164790  25.0908450  23.7706190  43.2199210  24.4468810  22.4329940
  45.6076010  24.2806190  20.1751900  46.1281670  23.5655210  19.8093050
  46.2544410  24.9192060  20.4752410  41.7448090  18.2027500  35.8143070
  41.6504960  17.5848250  35.0893940  41.1645480  18.9293790  35.5872980
  41.9907270  21.3301810  19.8732960  41.7896330  20.4669170  20.2346300
  41.8199320  21.2435170  18.9354560  49.4695580  16.1410040  22.4019840
  49.7497870  15.2977940  22.7579260  48.6961310  16.3733150  22.9158590
  40.7890070  18.4302430  19.8610840  41.0915970  18.4369860  18.9529990
  41.5284660  18.0800290  20.3578500  44.0075000  17.3737050  20.8467040
  43.6597000  16.6961040  20.2669490  44.2087770  16.9126560  21.6610430
  46.1724040  32.3617800  22.4653640  47.0674830  32.7002770  22.4872400
  46.2041670  31.6397210  21.8377920  39.8120200  27.7344850  20.6940640
  40.2495070  28.2774520  21.3498220  40.2967930  26.9091800  20.7036980
  37.0266000  30.5233880  28.1460900  37.3569010  29.6554940  27.9139540
  37.4557000  30.7292400  28.9765860  54.3919840  28.6339290  20.5089550
  53.5612800  28.7015940  20.9796780  54.5691670  29.5243410  20.2056410
  53.8476300  25.3786770  23.0123750  54.6095210  25.9483420  23.1183440
  53.8630670  24.8113970  23.7832060  37.3480640  23.9024700  27.2431410
  36.6929480  23.6336340  26.5991110  38.1858590  23.7929180  26.7933390
  54.8536270  26.2336870  27.8565680  55.2245100  25.4504190  27.4501650
  55.4938200  26.9225970  27.6782980  53.8995470  25.6721140  20.1696270
  54.1744310  26.5800020  20.0415490  53.7106210  25.6083670  21.1058260
  50.2971080  18.6965990  21.4649900  50.7155960  18.5096970  20.6246560
  49.9907140  17.8445040  21.7752830  53.7960810  23.6090130  25.1625700
  53.4204410  22.8418060  24.7306990  53.0663930  23.9912830  25.6500630
  36.5618720  21.1123630  23.1856740  35.6582800  21.3753830  23.0108400
  37.0459340  21.3834800  22.4056700  53.0711770  21.8347620  28.4632940
  53.5949250  21.3410270  27.8323110  53.6571190  21.9697980  29.2080510
  39.1045930  20.1689170  21.0951120  39.8137630  19.7472390  20.6098400
  38.3885870  20.2364400  20.4634470  38.7520090  16.2228500  20.1353770
  39.4748220  16.7637440  20.4534990  39.0244610  15.9491920  19.2595310
  52.5611740  21.0920970  24.4025350  53.0570860  20.8591840  25.1874230
  52.3627810  20.2532810  23.9862990  38.4412280  15.4734690  30.0376390
  39.0888470  14.9232070  29.5971550  38.8614120  15.7277840  30.8592200
  53.9898900  19.7281920  26.9363030  53.8798180  19.5737960  27.8745300
  54.7506490  19.2002860  26.6938440  54.8789170  17.5589840  20.1769170
  55.8038480  17.4271020  19.9687460  54.8564960  17.6382660  21.1305620
  54.9527660  18.3300500  22.8025880  54.1579160  18.2645620  23.3318790
  55.1570940  19.2651140  22.7911230  38.1944280  15.6290360  32.7801710
  37.8459100  16.0854180  33.5459890  37.8631980  14.7347490  32.8624140
  38.8664920  15.1566560  36.0552480  39.4147910  14.9754610  35.2918590
  38.9320230  14.3660670  36.5908790  46.8326520  15.9574280  31.2075620
  46.0498310  16.4319780  31.4872380  46.5389450  15.0529110  31.0988800
  38.1766930  16.2621760  23.7289340  38.9346290  16.3750640  23.1553370
  37.7144100  17.0990960  23.6832770  44.7180740  18.3761030  26.7191650
  43.9055250  18.0017920  26.3787530  45.2222380  17.6206110  27.0212840
  49.2205720  15.0403480  27.9574720  49.8235090  15.6123690  28.4323240
  48.4798710  15.6042920  27.7348620  52.3640320  15.4425040  23.2315000
  52.5590950  16.3408490  23.4982430  51.5770190  15.2112120  23.7247950
  39.1601610  31.1238210  23.6707620  38.6349230  31.5046240  22.9669580
  39.0846190  31.7488980  24.3917330  40.5492080  16.7885810  22.2691310
  41.0784840  16.0015610  22.1399260  41.1820400  17.4677000  22.5026840
  42.7429920  16.5260950  25.3236700  42.1132660  15.8248260  25.4906830
  42.2035060  17.2865080  25.1069860  42.8685480  15.8044930  37.7589190
  42.5869750  16.3078530  36.9950010  43.2505180  15.0066680  37.3931320
  41.7594580  33.0720590  22.5456870  42.4913400  32.7879870  21.9980760
  42.0188250  32.8333870  23.4356250  40.9209370  29.1885320  22.5503200
  40.2918250  29.6570420  23.0989030  41.0357200  28.3434540  22.9849390
  48.3759090  23.2390980   8.7004400  48.2953140  22.3245590   8.4296110
  47.9623510  23.7358050   7.9944110  46.5077130  25.0170000  10.5813670
  45.7319230  24.5370440  10.8712240  47.1590060  24.3375650  10.4069830
  40.5242960  25.3289810  11.4589430  39.6927840  25.0738520  11.8585940
  41.1323940  25.4000580  12.1947350  50.5284560  29.4230190   9.3612800
  50.0666090  28.6517430   9.6899970  51.3410110  29.4496260   9.8665250
  40.5044220  29.3629900  11.6547450  40.8072260  28.4727640  11.4757670
  41.2487810  29.9200120  11.4269700  38.9334910  20.2891700   5.2431820
  38.0451610  20.6307670   5.1411700  39.2176100  20.0892020   4.3512650
  36.8967920  22.8897350  11.1271520  37.4684030  22.1219550  11.1275160
  36.8969460  23.1886110  10.2178130  46.7547870  31.7088200   8.9816790
  46.1359310  32.1645700   8.4111230  47.6099650  31.8639660   8.5806490
  45.9486120  27.6927190  10.5883830  45.8794400  26.7517130  10.4272960
  46.7105980  27.7828600  11.1606400  38.1392790  18.2981710  12.9140450
  37.9595630  17.4007460  13.1943210  37.7372870  18.8453580  13.5887400
  46.9791290  20.4997570  10.8152760  47.3556110  19.6269450  10.7026430
  46.8810800  20.8356270   9.9243200  41.1096300  18.8723200   6.2770200
  41.2163050  19.7726930   6.5838960  40.1988660  18.8241170   5.9864850
  50.7615410  17.9948010   7.7481100  51.5825030  17.5044580   7.7906580
  50.7949490  18.5845670   8.5012940  38.7579460  20.7942210  11.5222790
  39.4389570  21.0580580  12.1410190  38.4427510  19.9543080  11.8560800
  42.9504030  21.8409570  10.6095380  43.4582250  22.3390540  11.2500400
  43.4817270  21.0644770  10.4334740  55.0514960  20.0114760  14.3124730
  54.3467130  20.3996470  13.7939840  55.3172880  20.7065050  14.9145660
  41.2340130  16.4808130  14.8758800  41.2358570  16.9980520  14.0704700
  40.4044440  16.0038310  14.8528730  47.6211220  26.5927440   6.3748700
  47.0028490  27.0576890   5.8111420  48.1334470  27.2854920   6.7918210
  42.4842980  26.1203310  13.0532300  42.1512360  26.7472230  13.6953370
  42.6609660  26.6465190  12.2733970  50.9976890  19.9348390  10.5208640
  50.2932460  20.2233280  11.1011750  51.3589050  20.7448500  10.1608200
  40.9155460  18.1918090  12.8829250  41.2572270  19.0360140  12.5883120
  39.9771270  18.3401830  12.9994590  41.6962080  28.0884110  14.8681480
  42.3136080  28.7635190  14.5865930  40.8355200  28.4972090  14.7768980
  36.9894420  27.2783970   3.7488330  36.6122400  27.7671070   3.0173230
  37.2467490  27.9509250   4.3794860  52.6139670  29.5523520  12.7836120
  51.9303190  30.2222630  12.7752790  53.1533960  29.7504170  12.0180980
  54.0663810  19.3803180  10.9117850  53.1188720  19.4142160  11.0433280
  54.3913800  20.1942130  11.2967210  44.5983350  15.6800360   9.2073840
  44.9058330  15.1247250   8.4909340  43.6684050  15.8144820   9.0246830
  50.1498410  31.3967650  11.4981300  50.1625570  30.9929940  10.6303560
  49.5973630  32.1714940  11.3942730  51.4443830  28.1183870   6.5871470
  51.3340160  27.1758200   6.7120890  51.4412080  28.4799510   7.4734230
  49.5483850  26.2997490  12.8263910  49.9652640  26.0857600  11.9917370
  50.2723670  26.5570280  13.3972530  46.9864110  23.7449190   5.9433960
  46.0593390  23.6786570   6.1722430  47.1388930  24.6829320   5.8289200
  46.9733190  20.0166190   2.9401120  46.0336860  20.1780150   3.0253580
  47.2916450  20.7351870   2.3937110  53.4945950  24.6984710  12.9180150
  52.6664580  24.7677800  12.4430280  54.0896430  25.2839020  12.4495980
  51.0161400  25.3069490   6.4469210  50.3973820  24.9689040   5.7995510
  50.9985850  24.6629250   7.1548400  50.4587960  21.4854030  13.8635020
  50.0459140  22.3107740  14.1175010  49.7263910  20.8999070  13.6711380
  42.5920750  24.2713930   8.7253690  42.1877750  23.5591180   8.2299590
  42.6783870  23.9267170   9.6141730  43.0602450  27.9581490  10.8892900
  42.7630740  27.3526960  10.2100680  44.0102270  27.9958800  10.7782260
  41.3049370  21.0457140  12.5052730  41.8563960  21.1552480  11.7305980
  41.8192880  21.4194740  13.2207960  51.1488060  31.5313360  14.5516000
  50.6718620  32.3385550  14.3588610  50.4649850  30.8791690  14.7042210
  42.1520880  27.6963180  17.5400700  41.2549410  27.9203150  17.7874100
  42.1773750  27.8198120  16.5912100  49.1926100  24.5456300   3.4541960
  49.6319380  23.7078730   3.3079780  49.9054520  25.1785700   3.5406100
  40.9792100  24.5676500  16.1158070  40.8399870  25.4399300  16.4845470
  40.0973460  24.2249310  15.9706010  47.3021480  29.4852370   7.4223200
  47.7417390  30.2276700   7.0078590  47.2408370  29.7278940   8.3462160
  42.7772450  30.5098200  18.3243220  42.7487880  30.9141150  17.4571650
  42.6137420  29.5808560  18.1614820  52.7743240  15.7999110   1.7683000
  52.4615900  15.8925940   2.6682070  53.5355710  16.3780140   1.7180430
  39.2925380  23.1658910   6.2260340  39.1722980  23.8921000   5.6141610
  38.9826270  22.3961820   5.7488250  54.7287270  31.2925300  19.6207390
  55.2046990  31.7708190  20.2996470  55.3494430  31.2242790  18.8952890
  36.9310750  26.3374050  12.0328980  37.0091170  26.4722820  11.0884700
  37.5452430  25.6289940  12.2257100  38.1758380  28.0374240   8.4435160
  37.7686460  28.1788830   7.5888760  39.0671390  27.7534400   8.2406370
  54.1320520  28.4838150  16.7807400  54.2583580  28.2450030  15.8624580
  54.1741900  27.6522690  17.2529480  47.9937260  32.1866150  15.3502210
  48.5081930  32.0974160  16.1524640  47.1506340  32.5325850  15.6430120
  49.9691660  32.4721490   4.7786210  49.8092800  32.1824430   5.6768040
  49.8038370  31.6961620   4.2431440  42.4480040  32.2520020   6.5557830
  42.2722520  31.3355560   6.3425630  41.5935780  32.6107310   6.7955630
  49.6717790  29.9809050   3.3384210  48.9782950  29.9786340   2.6786490
  50.4140650  29.5568370   2.9078380  49.2367720  31.6071760   7.4132700
  49.6924670  30.8261140   7.7271320  49.5760240  32.3178580   7.9573880
  53.9844530  20.5370610  17.7457140  53.3688800  21.0450280  17.2172600
  53.6640950  19.6368940  17.6883080  36.9870270  27.3788220  14.5723440
  37.1501310  26.9093580  13.7542810  37.4522720  26.8711780  15.2372280
  41.7589040  16.5093980   9.6084010  41.3157190  17.2903520   9.2768530
  42.3174030  16.8323870  10.3154950  46.0458850  19.3762500  15.2119330
  45.5838220  19.5845520  16.0239270  45.6436960  18.5621850  14.9090000
  51.0463360  20.5971450  16.3415990  50.1956950  20.2977200  16.6625060
  50.8865150  20.8413460  15.4299810  48.1413070  22.0973200  18.4414780
  48.4666480  21.2636950  18.1017010  48.9293400  22.6201720  18.5893110
  44.8747860  16.1304680   4.4889840  44.2502040  16.1264550   5.2143150
  44.7877980  15.2635640   4.0925810  43.7964940  17.0541310  11.4673610
  44.0937270  17.9604140  11.3865630  44.3450500  16.5660090  10.8533180
  41.5503260  21.6327550   7.3365260  41.3244180  21.4164720   8.2411880
  40.7695790  22.0656010   6.9911230  48.7801020  21.6390920   5.9355910
  48.1809910  22.3626720   5.7519530  49.3280630  21.5767700   5.1532360
  43.9902470  22.5313130  18.0025530  43.8946070  21.5907860  17.8525930
  44.8334450  22.7528200  17.6073600  47.3865890  20.2754460   7.9659190
  47.7795460  20.5926660   7.1527880  47.7482740  19.3966340   8.0803710
  39.1213010  18.9426800  16.1559310  38.7276400  19.7902010  16.3632090
  38.4331410  18.3053170  16.3467950  45.6958060  19.0261770  19.2256050
  45.0056380  18.8333970  19.8602140  46.4390360  19.3096410  19.7580350
  36.4230060  16.8655260  10.1889390  36.1343110  17.4358120  10.9014370
  37.1675820  16.3859710  10.5520620  47.9721030  22.8660210  12.0609970
  47.2402150  23.3747020  12.4100070  47.5745370  22.0490190  11.7598750
  44.4098420  19.5414410  10.4662460  44.4134480  19.1004360   9.6167000
  45.3049540  19.8631740  10.5734280  40.2600800  19.4240900   9.4256670
  39.9200850  19.9016130  10.1823720  39.4978120  18.9706020   9.0657770
  44.4718570  20.5426490   3.4569220  44.5931390  20.5012970   4.4055040
  44.0867080  21.4050640   3.3015950  48.4346940  18.3193890  11.4732910
  48.4519680  18.7702540  12.3174760  48.1862520  17.4199530  11.6866350
  43.4840070  22.8527630   2.8552520  42.9156970  22.4045880   2.2288430
  44.1929070  23.2120410   2.3217670  51.8617690  15.7326070  17.3119290
  52.1863460  15.0015730  17.8377270  51.8974200  15.4139710  16.4100280
  38.5609250  26.7539650  16.7319250  38.1764040  26.1133320  17.3302210
  38.8721440  27.4575770  17.3013980  44.7106390  23.6016190  12.2127870
  45.0776520  23.1274760  12.9589210  44.5211450  24.4757760  12.5536210
  37.5746880  18.3459880   8.3421340  37.2893800  17.9815550   9.1799960
  37.5125740  17.6140340   7.7284480  42.5005760  22.6424830  14.5312080
  42.1962830  23.5216810  14.7562440  43.4552220  22.7024620  14.5669520
  41.0287550  26.8485820   5.1278930  40.2549810  26.3083440   4.9677650
  41.7582180  26.3292430   4.7896690  51.7875530  25.8451180  10.9205320
  52.5074650  26.3406470  10.5301430  51.5857350  25.1669070  10.2759190
  47.2485470  17.2389140   5.0634710  46.4350080  16.7402310   4.9880020
  47.0547420  18.0787390   4.6471060  47.1694330  25.9160240  16.8074320
  47.1031640  24.9955910  16.5531910  46.5399470  26.0135680  17.5218960
  49.9633860  21.6108790   3.3596870  50.8513480  21.9226020   3.1848210
  49.9338950  20.7381040   2.9677450  41.0724950  26.5166200   8.7657740
  41.5903620  25.7134460   8.7114630  40.6208970  26.4545340   9.6074570
  45.9594450  27.7832480   4.0385040  46.3010150  28.5274710   3.5428360
  45.1307160  28.0963600   4.4009870  38.5569490  23.4827570  15.6783440
  38.1984430  24.1481420  16.2656780  38.2624050  22.6511120  16.0496060
  41.7582610  23.9411810  18.5622990  41.4582750  24.0868990  17.6650810
  42.5293850  23.3817100  18.4696380  47.1011060  28.7380810  16.5578120
  47.1155600  27.8061770  16.3397030  46.3936160  28.8240570  17.1967890
  52.2348130  22.9220630   2.8276730  52.1511850  23.3534850   1.9773170
  52.9542320  23.3818980   3.2603550  53.3122270  25.3788150  15.9046700
  52.5870460  25.9716930  15.7076090  53.8397730  25.3711690  15.1060070
  53.2635380  29.7762890   5.5558860  52.6211540  29.1218510   5.8302580
  52.8766040  30.1817980   4.7799530  48.8421860  27.1048320   9.4030550
  49.1945680  26.5076450   8.7431920  47.9584190  26.7792550   9.5738800
  44.9285140  27.8646010   6.8100960  45.6156270  28.4115220   7.1908550
  44.1417560  28.4086740   6.8450570  37.0677540  23.4818830   2.3018040
  37.9372390  23.7643630   2.5853960  36.5767860  24.2954700   2.1866850
  44.2312350  24.8692040   6.4226320  44.6875130  25.6797290   6.6486510
  43.8800560  24.5515180   7.2544810  46.5344960  30.3798380  13.6518620
  47.1787180  30.5857760  14.3292040  46.8974400  29.6186780  13.1989470
  40.1324130  15.2129690   6.8948840  40.0038760  15.2047590   7.8433760
  39.3086150  15.5512780   6.5439850  47.8077040  28.3830730  12.3696070
  48.4499270  27.6823890  12.4828240  48.3326390  29.1629170  12.1892960
  49.5814660  29.1825630  15.5732130  49.9170900  29.7692320  16.2510050
  48.6615000  29.0518340  15.8029920  37.4348790  32.6946210   2.8679670
  37.7946430  33.2935550   2.2136940  37.2941130  33.2406100   3.6414700
  37.1318060  16.9720810  16.3555540  36.4176580  17.1717730  16.9608150
  37.5513100  16.1960380  16.7270340  51.2349010  26.5851290   3.7549370
  50.9470710  27.0463980   4.5427250  52.0301180  26.1249060   4.0233590
  37.4190650  30.9601070  17.3422070  37.5281770  30.0195810  17.2017460
  36.7671210  31.2255820  16.6935800  45.4103240  29.2316960  18.7420190
  45.0900110  28.5126200  19.2865880  44.7361600  29.9072030  18.8156250
  43.4517410  30.0777410   3.6853340  43.4427510  30.8107100   3.0697850
  42.5315770  29.8308990   3.7780300  39.0524050  25.2992300   4.4300100
  38.4452000  26.0391200   4.4395400  39.5273400  25.3891660   3.6038300
  48.6256840  19.4643120  14.1056990  48.9937660  18.6438330  14.4336560
  47.7655040  19.5245010  14.5212640  51.9918870  18.4200060   4.9144550
  51.3632030  18.5245730   4.2002780  51.4970790  18.6396840   5.7038430
  43.9602900  20.6986010   6.3302430  43.2519050  21.1672350   6.7716040
  44.2447380  20.0408020   6.9647620  45.5858830  22.1182710  14.3294960
  46.0844080  22.5928530  14.9946810  45.7281780  21.1946230  14.5364990
  47.9918330  17.4236670   7.7698220  47.8686110  17.4422800   6.8207730
  48.9402890  17.4715610   7.8896620  45.0795120  32.6591970   7.0426200
  45.3336620  32.6213360   6.1205570  44.1307600  32.5325300   7.0354450
  42.1637920  19.0071090   3.7053140  43.0128450  19.4441240   3.6393330
  41.7969190  19.3191350   4.5325200  52.7925690  18.3350670  15.1723350
  52.2899290  19.0756070  15.5117160  53.6082350  18.7234670  14.8560140
  51.0847700  23.5783850   8.6184710  50.1437840  23.5934080   8.7932400
  51.3991770  22.7919810   9.0645010  39.7576100  22.6928520   2.8621560
  39.8379690  21.7456030   2.9738960  40.6495850  23.0235400   2.9682220
  53.0873280  30.7492700  10.2938970  53.2120700  31.5723870  10.7662780
  53.9538840  30.5383430   9.9463120  40.5590810  32.8423910   9.9656100
  41.2953290  32.2939370  10.2364670  40.9431730  33.7079920   9.8262090
  37.4436290  28.9097480   5.8397610  36.5176070  29.1518620   5.8303020
  37.9092720  29.7371740   5.7182360  39.5649090  32.0269980  19.1541680
  40.3661820  32.3482030  19.5677080  39.0500910  31.6665560  19.8761590
  48.4013720  28.1349850  19.1017090  47.7951880  28.1581450  18.3612840
  48.0967830  27.4032890  19.6384340  49.8314090  31.8630140  17.7126500
  50.7835840  31.7788160  17.6626740  49.6842310  32.5271850  18.3860290
  52.7223290  31.2424350   3.2118410  52.4364800  30.8289490   2.3972590
  52.5242840  32.1712060   3.0918930  37.2846900  24.5143440  18.0977730
  37.7885920  23.9350720  18.6693960  36.5454320  24.7983670  18.6354100
  44.3384840  25.9214430  17.6313250  43.5730510  26.4899430  17.5467920
  44.5200800  25.6290640  16.7381480  47.4273250  26.2977660   2.2566010
  46.8783350  26.7446960   2.9008750  48.0492510  25.7926910   2.7803680
  51.4808190  27.6519760  18.1888270  52.2217660  27.9895520  17.6855730
  50.7180870  27.8211820  17.6358040  39.3169980  22.6573030  18.9927800
  39.3575320  22.3586900  19.9013030  40.1715480  23.0580640  18.8335320
  43.0948370  25.2568580   4.1531310  43.5164790  25.0908450   4.9962700
  43.2199210  24.4468810   3.6586450  41.2575790  21.2365130  16.9602290
  40.7272250  20.7456080  16.3325630  41.9263860  21.6649330  16.4260220
  50.1553850  25.7034590  16.7243480  50.5694870  25.8579670  17.5733900
  49.2204850  25.8289810  16.8869260  50.6276020  23.0430750  18.7282630
  51.2096790  22.2883070  18.6403110  50.8037790  23.5738190  17.9514110
  41.7448090  18.2027500  17.0399580  41.6504960  17.5848250  16.3150450
  41.1645480  18.9293790  16.8129490  44.5109530  16.7600740  14.0726970
  44.0626830  16.7825000  13.2272520  43.8774730  16.3619760  14.6697270
  44.9169080  25.6555070  14.6939410  45.3357190  26.4987800  14.5215650
  43.9977710  25.7927110  14.4646190  47.2532980  23.3871250  16.0777250
  47.3729190  22.7912390  16.8172090  48.1126980  23.4240940  15.6578550
  49.5920880  23.9408440  14.6539760  49.0656100  24.4651060  14.0504900
  49.9352220  24.5735830  15.2849490  42.7676500  31.9608080  15.8097140
  42.2297590  32.6854140  15.4905840  43.0210460  31.4838420  15.0194480
  44.0201750  19.9292600  17.3353070  44.6101440  19.6208450  18.0230890
  43.2021990  19.4572350  17.4912970  48.8395180  19.5458410  17.5686090
  48.1510700  18.8839950  17.5036080  49.5601200  19.0996680  18.0134550
  49.4695580  16.1410040   3.6276350  49.7497870  15.2977940   3.9835770
  48.6961310  16.3733150   4.1415100  45.6238710  33.1959290  16.0683790
  45.5497410  34.0994430  16.3756160  44.7217550  32.8771190  16.0405860
  46.1724040  32.3617800   3.6910150  47.0674830  32.7002770   3.7128910
  46.2041670  31.6397210   3.0634430  39.8120200  27.7344850   1.9197150
  40.2495070  28.2774520   2.5754730  40.2967930  26.9091800   1.9293490
  37.0266000  30.5233880   9.3717410  37.3569010  29.6554940   9.1396050
  37.4557000  30.7292400  10.2022370  41.6227920  28.8542890   7.0319380
  41.3223460  28.7307860   7.9323290  41.5165410  27.9951480   6.6235110
  37.5156210  31.3904470  12.1099040  37.0787200  31.5705270  12.9423190
  38.0833890  32.1479090  11.9680760  53.1518390  30.8921470  16.3976350
  52.5520380  30.9514030  15.6540270  53.2812290  29.9526450  16.5273200
  53.8476300  25.3786770   4.2380260  54.6095210  25.9483420   4.3439950
  53.8630670  24.8113970   5.0088570  37.3480640  23.9024700   8.4687920
  36.6929480  23.6336340   7.8247620  38.1858590  23.7929180   8.0189900
  54.8536270  26.2336870   9.0822190  55.2245100  25.4504190   8.6758160
  55.4938200  26.9225970   8.9039490  51.8370030  27.6173450  14.4952510
  51.0229870  28.0470610  14.7578300  52.2444230  28.2291860  13.8821560
  50.2971080  18.6965990   2.6906410  50.7155960  18.5096970   1.8503070
  49.9907140  17.8445040   3.0009340  53.7960810  23.6090130   6.3882210
  53.4204410  22.8418060   5.9563500  53.0663930  23.9912830   6.8757140
  38.3856570  24.2877270  13.0091260  38.7529610  24.2004670  13.8887280
  37.8167390  23.5243820  12.9098120  53.1860430  22.7561650  16.0221730
  52.9546520  22.5274400  15.1219680  53.4464980  23.6761200  15.9766620
  37.9372570  21.1986360  16.9149680  37.0428620  21.1653120  17.2543390
  38.4770120  21.3973150  17.6800930  51.6248500  17.9818080  18.8001430
  52.5018680  17.9901480  19.1835430  51.6369340  17.2448920  18.1893780
  36.5618720  21.1123630   4.4113250  35.6582800  21.3753830   4.2364910
  37.0459340  21.3834800   3.6313210  53.0711770  21.8347620   9.6889450
  53.5949250  21.3410270   9.0579620  53.6571190  21.9697980  10.4337020
  53.2501490  21.9187490  13.2109000  52.3004200  21.8851030  13.3253990
  53.4314500  22.8287600  12.9758770  39.1045930  20.1689170   2.3207630
  39.8137630  19.7472390   1.8354910  38.3885870  20.2364400   1.6890980
  52.5611740  21.0920970   5.6281860  53.0570860  20.8591840   6.4130740
  52.3627810  20.2532810   5.2119500  38.4412280  15.4734690  11.2632900
  39.0888470  14.9232070  10.8228060  38.8614120  15.7277840  12.0848710
  53.9898900  19.7281920   8.1619540  53.8798180  19.5737960   9.1001810
  54.7506490  19.2002860   7.9194950  52.3364620  15.6676050  14.6202540
  52.9736840  16.2810190  14.9861730  52.4839510  15.7036710  13.6751770
  54.9527660  18.3300500   4.0282390  54.1579160  18.2645620   4.5575300
  55.1570940  19.2651140   4.0167740  51.8946080  32.3692050   8.0220780
  52.4905150  32.0476620   7.3455200  52.1524230  31.8963870   8.8134050
  38.1944280  15.6290360  14.0058220  37.8459100  16.0854180  14.7716400
  37.8631980  14.7347490  14.0880650  39.8008650  28.8009960  18.1711410
  39.7578280  28.4302870  19.0525870  39.9319660  29.7387530  18.3113230
  43.5014680  30.3569550  13.7721130  43.2606040  30.6244110  12.8851650
  44.4417320  30.5275280  13.8271990  45.7069100  16.8202240  17.5277640
  45.6457990  17.4124070  18.2773050  46.6469480  16.7128200  17.3827900
  48.3443660  16.4772300  17.1669930  48.9584070  16.7951590  16.5051010
  48.8893220  15.9920890  17.7865790  54.7618840  32.3763930  14.5731770
  54.2677120  32.7732800  13.8558900  54.1532130  31.7513140  14.9669050
  38.8664920  15.1566560  17.2808990  39.4147910  14.9754610  16.5175100
  38.9320230  14.3660670  17.8165300  39.6396680  31.7472210  15.2909190
  39.0457000  31.6156910  16.0299230  39.6320520  30.9110350  14.8251290
  49.0851700  15.0404440  13.4939220  48.2111540  15.3739550  13.2912150
  48.9762450  14.5677620  14.3191090  49.9923680  17.2475310  14.8780940
  49.6637040  16.4327070  14.4982670  50.9405980  17.2045120  14.7546630
  52.4458290  33.0187350  11.8518510  51.9861260  33.7703160  11.4776530
  51.8170750  32.2993820  11.7933310  39.2708910  29.1130590  14.2417230
  38.5442970  28.4935880  14.1743180  39.3318060  29.5071200  13.3715310
  42.8754010  31.3275590  11.0266640  43.3919030  30.7162950  10.5014900
  43.5251390  31.8304370  11.5177650  45.6149510  32.2184080  11.8535620
  45.9027320  31.9638380  10.9768630  46.1272730  31.6661440  12.4441190
  46.8326520  15.9574280  12.4332130  46.0498310  16.4319780  12.7128890
  46.5389450  15.0529110  12.3245310  51.3847590  16.6597380  10.4781220
  51.8255680  16.6042480   9.6302820  51.1155180  17.5755390  10.5491400
  53.2486160  16.2912620   8.4890040  53.1874560  15.3473840   8.3421060
  54.0278190  16.3992710   9.0343500  37.5538910  32.4304980   7.4513990
  37.3860950  31.7975660   8.1495880  36.6873420  32.6364380   7.1008180
  38.1766930  16.2621760   4.9545850  38.9346290  16.3750640   4.3809880
  37.7144100  17.0990960   4.9089280  44.7180740  18.3761030   7.9448160
  43.9055250  18.0017920   7.6044040  45.2222380  17.6206110   8.2469350
  49.2205720  15.0403480   9.1831230  49.8235090  15.6123690   9.6579750
  48.4798710  15.6042920   8.9605130  52.3640320  15.4425040   4.4571510
  52.5590950  16.3408490   4.7238940  51.5770190  15.2112120   4.9504460
  39.1601610  31.1238210   4.8964130  38.6349230  31.5046240   4.1926090
  39.0846190  31.7488980   5.6173840  40.5492080  16.7885810   3.4947820
  41.0784840  16.0015610   3.3655770  41.1820400  17.4677000   3.7283350
  42.7429920  16.5260950   6.5493210  42.1132660  15.8248260   6.7163340
  42.2035060  17.2865080   6.3326370  45.6821870  33.1400180  19.2203820
  46.6089180  32.9044450  19.2639780  45.6672300  33.9672180  18.7389850
  53.9166930  32.6825750   6.2178070  54.0919120  31.9963490   5.5738990
  53.2188500  33.2072800   5.8254740  42.8685480  15.8044930  18.9845700
  42.5869750  16.3078530  18.2206520  43.2505180  15.0066680  18.6187830
  41.7594580  33.0720590   3.7713380  42.4913400  32.7879870   3.2237270
  42.0188250  32.8333870   4.6612760  40.9209370  29.1885320   3.7759710
  40.2918250  29.6570420   4.3245540  41.0357200  28.3434540   4.2105900
  49.4700940  15.2198510  19.5626170  49.3566390  15.5393120  20.4577690
  50.2870680  15.6211020  19.2663450  52.2499430  32.3670040  19.0444860
  53.0424750  31.8719270  18.8370820  52.5432580  33.0460180  19.6520470
  48.3759090   4.4647490  83.7978360  48.2953140   3.5502100  83.5270070
  47.9623510   4.9614560  83.0918070  46.5077130   6.2426510  85.6787630
  45.7319230   5.7626950  85.9686200  47.1590060   5.5632160  85.5043790
  40.5242960   6.5546320  86.5563390  39.6927840   6.2995030  86.9559900
  41.1323940   6.6257090  87.2921310  50.5284560  10.6486700  84.4586760
  50.0666090   9.8773940  84.7873930  51.3410110  10.6752770  84.9639210
  40.5044220  10.5886410  86.7521410  40.8072260   9.6984150  86.5731630
  41.2487810  11.1456630  86.5243660  36.8967920   4.1153860  86.2245480
  37.4684030   3.3476060  86.2249120  36.8969460   4.4142620  85.3152090
  46.7547870  12.9344710  84.0790750  46.1359310  13.3902210  83.5085190
  47.6099650  13.0896170  83.6780450  45.9486120   8.9183700  85.6857790
  45.8794400   7.9773640  85.5246920  46.7105980   9.0085110  86.2580360
  42.9504030   3.0666080  85.7069340  43.4582250   3.5647050  86.3474360
  43.4817270   2.2901280  85.5308700  47.6211220   7.8183950  81.4722660
  47.0028490   8.2833400  80.9085380  48.1334470   8.5111430  81.8892170
  42.4842980   7.3459820  88.1506260  42.1512360   7.9728740  88.7927330
  42.6609660   7.8721700  87.3707930  41.6962080   9.3140620  89.9655440
  42.3136080   9.9891700  89.6839890  40.8355200   9.7228600  89.8742940
  36.9894420   8.5040480  78.8462290  36.6122400   8.9927580  78.1147190
  37.2467490   9.1765760  79.4768820  52.6139670  10.7780030  87.8810080
  51.9303190  11.4479140  87.8726750  53.1533960  10.9760680  87.1154940
  50.1498410  12.6224160  86.5955260  50.1625570  12.2186450  85.7277520
  49.5973630  13.3971450  86.4916690  51.4443830   9.3440380  81.6845430
  51.3340160   8.4014710  81.8094850  51.4412080   9.7056020  82.5708190
  49.5483850   7.5254000  87.9237870  49.9652640   7.3114110  87.0891330
  50.2723670   7.7826790  88.4946490  46.9864110   4.9705700  81.0407920
  46.0593390   4.9043080  81.2696390  47.1388930   5.9085830  80.9263160
  53.4945950   5.9241220  88.0154110  52.6664580   5.9934310  87.5404240
  54.0896430   6.5095530  87.5469940  51.0161400   6.5326000  81.5443170
  50.3973820   6.1945550  80.8969470  50.9985850   5.8885760  82.2522360
  50.4587960   2.7110540  88.9608980  50.0459140   3.5364250  89.2148970
  49.7263910   2.1255580  88.7685340  42.5920750   5.4970440  83.8227650
  42.1877750   4.7847690  83.3273550  42.6783870   5.1523680  84.7115690
  43.0602450   9.1838000  85.9866860  42.7630740   8.5783470  85.3074640
  44.0102270   9.2215310  85.8756220  41.3049370   2.2713650  87.6026690
  41.8563960   2.3808990  86.8279940  41.8192880   2.6451250  88.3181920
  51.1488060  12.7569870  89.6489960  50.6718620  13.5642060  89.4562570
  50.4649850  12.1048200  89.8016170  42.1520880   8.9219690  92.6374660
  41.2549410   9.1459660  92.8848060  42.1773750   9.0454630  91.6886060
  49.1926100   5.7712810  78.5515920  49.6319380   4.9335240  78.4053740
  49.9054520   6.4042210  78.6380060  40.9792100   5.7933010  91.2132030
  40.8399870   6.6655810  91.5819430  40.0973460   5.4505820  91.0679970
  47.3021480  10.7108880  82.5197160  47.7417390  11.4533210  82.1052550
  47.2408370  10.9535450  83.4436120  42.7772450  11.7354710  93.4217180
  42.7487880  12.1397660  92.5545610  42.6137420  10.8065070  93.2588780
  39.2925380   4.3915420  81.3234300  39.1722980   5.1177510  80.7115570
  38.9826270   3.6218330  80.8462210  36.9310750   7.5630560  87.1302940
  37.0091170   7.6979330  86.1858660  37.5452430   6.8546450  87.3231060
  38.1758380   9.2630750  83.5409120  37.7686460   9.4045340  82.6862720
  39.0671390   8.9790910  83.3380330  54.1320520   9.7094660  91.8781360
  54.2583580   9.4706540  90.9598540  54.1741900   8.8779200  92.3503440
  47.9937260  13.4122660  90.4476170  48.5081930  13.3230670  91.2498600
  47.1506340  13.7582360  90.7404080  49.9691660  13.6978000  79.8760170
  49.8092800  13.4080940  80.7742000  49.8038370  12.9218130  79.3405400
  42.4480040  13.4776530  81.6531790  42.2722520  12.5612070  81.4399590
  41.5935780  13.8363820  81.8929590  49.6717790  11.2065560  78.4358170
  48.9782950  11.2042850  77.7760450  50.4140650  10.7824880  78.0052340
  49.2367720  12.8328270  82.5106660  49.6924670  12.0517650  82.8245280
  49.5760240  13.5435090  83.0547840  36.9870270   8.6044730  89.6697400
  37.1501310   8.1350090  88.8516770  37.4522720   8.0968290  90.3346240
  51.0463360   1.8227960  91.4389950  50.1956950   1.5233710  91.7599020
  50.8865150   2.0669970  90.5273770  48.1413070   3.3229710  93.5388740
  48.4666480   2.4893460  93.1990970  48.9293400   3.8458230  93.6867070
  41.5503260   2.8584060  82.4339220  41.3244180   2.6421230  83.3385840
  40.7695790   3.2912520  82.0885190  48.7801020   2.8647430  81.0329870
  48.1809910   3.5883230  80.8493490  49.3280630   2.8024210  80.2506320
  43.9902470   3.7569640  93.0999490  43.8946070   2.8164370  92.9499890
  44.8334450   3.9784710  92.7047560  36.6100290   2.0331890  76.4966070
  36.5274960   2.9762650  76.6381060  36.2583350   1.8906800  75.6178420
  47.9721030   4.0916720  87.1583930  47.2402150   4.6003530  87.5074030
  47.5745370   3.2746700  86.8572710  44.4718570   1.7683000  78.5543180
  44.5931390   1.7269480  79.5029000  44.0867080   2.6307150  78.3989910
  43.4840070   4.0784140  77.9526480  42.9156970   3.6302390  77.3262390
  44.1929070   4.4376920  77.4191630  38.5609250   7.9796160  91.8293210
  38.1764040   7.3389830  92.4276170  38.8721440   8.6832280  92.3987940
  44.7106390   4.8272700  87.3101830  45.0776520   4.3531270  88.0563170
  44.5211450   5.7014270  87.6510170  42.5005760   3.8681340  89.6286040
  42.1962830   4.7473320  89.8536400  43.4552220   3.9281130  89.6643480
  41.0287550   8.0742330  80.2252890  40.2549810   7.5339950  80.0651610
  41.7582180   7.5548940  79.8870650  51.7875530   7.0707690  86.0179280
  52.5074650   7.5662980  85.6275390  51.5857350   6.3925580  85.3733150
  47.1694330   7.1416750  91.9048280  47.1031640   6.2212420  91.6505870
  46.5399470   7.2392190  92.6192920  49.9633860   2.8365300  78.4570830
  50.8513480   3.1482530  78.2822170  49.9338950   1.9637550  78.0651410
  41.0724950   7.7422710  83.8631700  41.5903620   6.9390970  83.8088590
  40.6208970   7.6801850  84.7048530  45.9594450   9.0088990  79.1359000
  46.3010150   9.7531220  78.6402320  45.1307160   9.3220110  79.4983830
  38.5569490   4.7084080  90.7757400  38.1984430   5.3737930  91.3630740
  38.2624050   3.8767630  91.1470020  41.7582610   5.1668320  93.6596950
  41.4582750   5.3125500  92.7624770  42.5293850   4.6073610  93.5670340
  47.1011060   9.9637320  91.6552080  47.1155600   9.0318280  91.4370990
  46.3936160  10.0497080  92.2941850  52.2348130   4.1477140  77.9250690
  52.1511850   4.5791360  77.0747130  52.9542320   4.6075490  78.3577510
  53.3122270   6.6044660  91.0020660  52.5870460   7.1973440  90.8050050
  53.8397730   6.5968200  90.2034030  53.2635380  11.0019400  80.6532820
  52.6211540  10.3475020  80.9276540  52.8766040  11.4074490  79.8773490
  48.8421860   8.3304830  84.5004510  49.1945680   7.7332960  83.8405880
  47.9584190   8.0049060  84.6712760  44.9285140   9.0902520  81.9074920
  45.6156270   9.6371730  82.2882510  44.1417560   9.6343250  81.9424530
  37.0677540   4.7075340  77.3992000  37.9372390   4.9900140  77.6827920
  36.5767860   5.5211210  77.2840810  44.2312350   6.0948550  81.5200280
  44.6875130   6.9053800  81.7460470  43.8800560   5.7771690  82.3518770
  46.5344960  11.6054890  88.7492580  47.1787180  11.8114270  89.4266000
  46.8974400  10.8443290  88.2963430  47.8077040   9.6087240  87.4670030
  48.4499270   8.9080400  87.5802200  48.3326390  10.3885680  87.2866920
  51.6532760   9.8935860  77.1909170  51.4270340   9.1766300  77.7833810
  51.2628960   9.6448300  76.3530920  49.5814660  10.4082140  90.6706090
  49.9170900  10.9948830  91.3484010  48.6615000  10.2774850  90.9003880
  37.4348790  13.9202720  77.9653630  37.7946430  14.5192060  77.3110900
  37.2941130  14.4662610  78.7388660  51.2349010   7.8107800  78.8523330
  50.9470710   8.2720490  79.6401210  52.0301180   7.3505570  79.1207550
  37.4190650  12.1857580  92.4396030  37.5281770  11.2452320  92.2991420
  36.7671210  12.4512330  91.7909760  43.4517410  11.3033920  78.7827300
  43.4427510  12.0363610  78.1671810  42.5315770  11.0565500  78.8754260
  39.0524050   6.5248810  79.5274060  38.4452000   7.2647710  79.5369360
  39.5273400   6.6148170  78.7012260  46.4377010  11.3662160  77.4452490
  46.5388990  11.1626150  76.5154470  45.5378750  11.1120440  77.6500270
  45.5858830   3.3439220  89.4268920  46.0844080   3.8185040  90.0920770
  45.7281780   2.4202740  89.6338950  45.0795120  13.8848480  82.1400160
  45.3336620  13.8469870  81.2179530  44.1307600  13.7581810  82.1328410
  51.0847700   4.8040360  83.7158670  50.1437840   4.8190590  83.8906360
  51.3991770   4.0176320  84.1618970  41.0629340   6.4859960  77.2762630
  41.8292610   6.3741320  77.8388060  41.1404030   5.7897930  76.6239400
  39.7576100   3.9185030  77.9595520  39.8379690   2.9712540  78.0712920
  40.6495850   4.2491910  78.0656180  53.0873280  11.9749210  85.3912930
  53.2120700  12.7980380  85.8636740  53.9538840  11.7639940  85.0437080
  40.5590810  14.0680420  85.0630060  41.2953290  13.5195880  85.3338630
  40.9431730  14.9336430  84.9236050  37.4436290  10.1353990  80.9371570
  36.5176070  10.3775130  80.9276980  37.9092720  10.9628250  80.8156320
  43.6693120  13.2410730  76.8855630  44.4621730  13.5299560  76.4337420
  43.1497470  12.8102900  76.2068110  49.8314090  13.0886650  92.8100460
  50.7835840  13.0044670  92.7600700  49.6842310  13.7528360  93.4834250
  52.7223290  12.4680860  78.3092370  52.4364800  12.0546000  77.4946550
  52.5242840  13.3968570  78.1892890  37.2846900   5.7399950  93.1951690
  37.7885920   5.1607230  93.7667920  36.5454320   6.0240180  93.7328060
  44.1870520   8.4614140  76.7497980  44.0821160   7.8466490  77.4759360
  44.0194740   7.9380030  75.9660990  44.3384840   7.1470940  92.7287210
  43.5730510   7.7155940  92.6441880  44.5200800   6.8547150  91.8355440
  47.4273250   7.5234170  77.3539970  46.8783350   7.9703470  77.9982710
  48.0492510   7.0183420  77.8777640  51.4808190   8.8776270  93.2862230
  52.2217660   9.2152030  92.7829690  50.7180870   9.0468330  92.7332000
  43.0948370   6.4825090  79.2505270  43.5164790   6.3164960  80.0936660
  43.2199210   5.6725320  78.7560410  41.2575790   2.4621640  92.0576250
  40.7272250   1.9712590  91.4299590  41.9263860   2.8905840  91.5234180
  45.6076010   5.5062700  76.4982370  46.1281670   4.7911720  76.1323520
  46.2544410   6.1448570  76.7982880  50.1553850   6.9291100  91.8217440
  50.5694870   7.0836180  92.6707860  49.2204850   7.0546320  91.9843220
  50.6276020   4.2687260  93.8256590  51.2096790   3.5139580  93.7377070
  50.8037790   4.7994700  93.0488070  44.9169080   6.8811580  89.7913370
  45.3357190   7.7244310  89.6189610  43.9977710   7.0183620  89.5620150
  47.2532980   4.6127760  91.1751210  47.3729190   4.0168900  91.9146050
  48.1126980   4.6497450  90.7552510  49.5920880   5.1664950  89.7513720
  49.0656100   5.6907570  89.1478860  49.9352220   5.7992340  90.3823450
  41.9907270   2.5558320  76.1963430  41.7896330   1.6925680  76.5576770
  41.8199320   2.4691680  75.2585030  42.7676500  13.1864590  90.9071100
  42.2297590  13.9110650  90.5879800  43.0210460  12.7094930  90.1168440
  45.6238710  14.4215800  91.1657750  45.5497410  15.3250940  91.4730120
  44.7217550  14.1027700  91.1379820  46.1724040  13.5874310  78.7884110
  47.0674830  13.9259280  78.8102870  46.2041670  12.8653720  78.1608390
  39.8120200   8.9601360  77.0171110  40.2495070   9.5031030  77.6728690
  40.2967930   8.1348310  77.0267450  37.0266000  11.7490390  84.4691370
  37.3569010  10.8811450  84.2370010  37.4557000  11.9548910  85.2996330
  41.6227920  10.0799400  82.1293340  41.3223460   9.9564370  83.0297250
  41.5165410   9.2207990  81.7209070  37.5156210  12.6160980  87.2073000
  37.0787200  12.7961780  88.0397150  38.0833890  13.3735600  87.0654720
  53.1518390  12.1177980  91.4950310  52.5520380  12.1770540  90.7514230
  53.2812290  11.1782960  91.6247160  54.3919840   9.8595800  76.8320020
  53.5612800   9.9272450  77.3027250  54.5691670  10.7499920  76.5286880
  53.8476300   6.6043280  79.3354220  54.6095210   7.1739930  79.4413910
  53.8630670   6.0370480  80.1062530  37.3480640   5.1281210  83.5661880
  36.6929480   4.8592850  82.9221580  38.1858590   5.0185690  83.1163860
  54.8536270   7.4593380  84.1796150  55.2245100   6.6760700  83.7732120
  55.4938200   8.1482480  84.0013450  51.8370030   8.8429960  89.5926470
  51.0229870   9.2727120  89.8552260  52.2444230   9.4548370  88.9795520
  53.8995470   6.8977650  76.4926740  54.1744310   7.8056530  76.3645960
  53.7106210   6.8340180  77.4288730  53.7960810   4.8346640  81.4856170
  53.4204410   4.0674570  81.0537460  53.0663930   5.2169340  81.9731100
  38.3856570   5.5133780  88.1065220  38.7529610   5.4261180  88.9861240
  37.8167390   4.7500330  88.0072080  53.1860430   3.9818160  91.1195690
  52.9546520   3.7530910  90.2193640  53.4464980   4.9017710  91.0740580
  37.9372570   2.4242870  92.0123640  37.0428620   2.3909630  92.3517350
  38.4770120   2.6229660  92.7774890  36.5618720   2.3380140  79.5087210
  35.6582800   2.6010340  79.3338870  37.0459340   2.6091310  78.7287170
  53.0711770   3.0604130  84.7863410  53.5949250   2.5666780  84.1553580
  53.6571190   3.1954490  85.5310980  53.2501490   3.1444000  88.3082960
  52.3004200   3.1107540  88.4227950  53.4314500   4.0544110  88.0732730
  52.5611740   2.3177480  80.7255820  53.0570860   2.0848350  81.5104700
  52.3627810   1.4789320  80.3093460  51.8946080  13.5948560  83.1194740
  52.4905150  13.2733130  82.4429160  52.1524230  13.1220380  83.9108010
  43.5014680  11.5826060  88.8695090  43.2606040  11.8500620  87.9825610
  44.4417320  11.7531790  88.9245950  54.7618840  13.6020440  89.6705730
  54.2677120  13.9989310  88.9532860  54.1532130  12.9769650  90.0643010
  39.6396680  12.9728720  90.3883150  39.0457000  12.8413420  91.1273190
  39.6320520  12.1366860  89.9225250  52.4458290  14.2443860  86.9492470
  51.9861260  14.9959670  86.5750490  51.8170750  13.5250330  86.8907270
  39.2708910  10.3387100  89.3391190  38.5442970   9.7192390  89.2717140
  39.3318060  10.7327710  88.4689270  42.8754010  12.5532100  86.1240600
  43.3919030  11.9419460  85.5988860  43.5251390  13.0560880  86.6151610
  45.6149510  13.4440590  86.9509580  45.9027320  13.1894890  86.0742590
  46.1272730  12.8917950  87.5415150  37.5538910  13.6561490  82.5487950
  37.3860950  13.0232170  83.2469840  36.6873420  13.8620890  82.1982140
  39.1601610  12.3494720  79.9938090  38.6349230  12.7302750  79.2900050
  39.0846190  12.9745490  80.7147800  53.9166930  13.9082260  81.3152030
  54.0919120  13.2220000  80.6712950  53.2188500  14.4329310  80.9228700
  41.7594580  14.2977100  78.8687340  42.4913400  14.0136380  78.3211230
  42.0188250  14.0590380  79.7586720  40.9209370  10.4141830  78.8733670
  40.2918250  10.8826930  79.4219500  41.0357200   9.5691050  79.3079860
  48.3759090   4.4647490  65.0234870  48.2953140   3.5502100  64.7526580
  47.9623510   4.9614560  64.3174580  46.5077130   6.2426510  66.9044140
  45.7319230   5.7626950  67.1942710  47.1590060   5.5632160  66.7300300
  40.5242960   6.5546320  67.7819900  39.6927840   6.2995030  68.1816410
  41.1323940   6.6257090  68.5177820  50.5284560  10.6486700  65.6843270
  50.0666090   9.8773940  66.0130440  51.3410110  10.6752770  66.1895720
  40.5044220  10.5886410  67.9777920  40.8072260   9.6984150  67.7988140
  41.2487810  11.1456630  67.7500170  36.8967920   4.1153860  67.4501990
  37.4684030   3.3476060  67.4505630  36.8969460   4.4142620  66.5408600
  46.7547870  12.9344710  65.3047260  46.1359310  13.3902210  64.7341700
  47.6099650  13.0896170  64.9036960  45.9486120   8.9183700  66.9114300
  45.8794400   7.9773640  66.7503430  46.7105980   9.0085110  67.4836870
  42.9504030   3.0666080  66.9325850  43.4582250   3.5647050  67.5730870
  43.4817270   2.2901280  66.7565210  47.6211220   7.8183950  62.6979170
  47.0028490   8.2833400  62.1341890  48.1334470   8.5111430  63.1148680
  42.4842980   7.3459820  69.3762770  42.1512360   7.9728740  70.0183840
  42.6609660   7.8721700  68.5964440  41.6962080   9.3140620  71.1911950
  42.3136080   9.9891700  70.9096400  40.8355200   9.7228600  71.0999450
  36.9894420   8.5040480  60.0718800  36.6122400   8.9927580  59.3403700
  37.2467490   9.1765760  60.7025330  52.6139670  10.7780030  69.1066590
  51.9303190  11.4479140  69.0983260  53.1533960  10.9760680  68.3411450
  50.1498410  12.6224160  67.8211770  50.1625570  12.2186450  66.9534030
  49.5973630  13.3971450  67.7173200  51.4443830   9.3440380  62.9101940
  51.3340160   8.4014710  63.0351360  51.4412080   9.7056020  63.7964700
  49.5483850   7.5254000  69.1494380  49.9652640   7.3114110  68.3147840
  50.2723670   7.7826790  69.7203000  46.9864110   4.9705700  62.2664430
  46.0593390   4.9043080  62.4952900  47.1388930   5.9085830  62.1519670
  53.4945950   5.9241220  69.2410620  52.6664580   5.9934310  68.7660750
  54.0896430   6.5095530  68.7726450  51.0161400   6.5326000  62.7699680
  50.3973820   6.1945550  62.1225980  50.9985850   5.8885760  63.4778870
  50.4587960   2.7110540  70.1865490  50.0459140   3.5364250  70.4405480
  49.7263910   2.1255580  69.9941850  42.5920750   5.4970440  65.0484160
  42.1877750   4.7847690  64.5530060  42.6783870   5.1523680  65.9372200
  43.0602450   9.1838000  67.2123370  42.7630740   8.5783470  66.5331150
  44.0102270   9.2215310  67.1012730  41.3049370   2.2713650  68.8283200
  41.8563960   2.3808990  68.0536450  41.8192880   2.6451250  69.5438430
  51.1488060  12.7569870  70.8746470  50.6718620  13.5642060  70.6819080
  50.4649850  12.1048200  71.0272680  42.1520880   8.9219690  73.8631170
  41.2549410   9.1459660  74.1104570  42.1773750   9.0454630  72.9142570
  49.1926100   5.7712810  59.7772430  49.6319380   4.9335240  59.6310250
  49.9054520   6.4042210  59.8636570  40.9792100   5.7933010  72.4388540
  40.8399870   6.6655810  72.8075940  40.0973460   5.4505820  72.2936480
  47.3021480  10.7108880  63.7453670  47.7417390  11.4533210  63.3309060
  47.2408370  10.9535450  64.6692630  42.7772450  11.7354710  74.6473690
  42.7487880  12.1397660  73.7802120  42.6137420  10.8065070  74.4845290
  39.2925380   4.3915420  62.5490810  39.1722980   5.1177510  61.9372080
  38.9826270   3.6218330  62.0718720  54.7287270  12.5181810  75.9437860
  55.2046990  12.9964700  76.6226940  55.3494430  12.4499300  75.2183360
  36.9310750   7.5630560  68.3559450  37.0091170   7.6979330  67.4115170
  37.5452430   6.8546450  68.5487570  38.1758380   9.2630750  64.7665630
  37.7686460   9.4045340  63.9119230  39.0671390   8.9790910  64.5636840
  54.1320520   9.7094660  73.1037870  54.2583580   9.4706540  72.1855050
  54.1741900   8.8779200  73.5759950  47.9937260  13.4122660  71.6732680
  48.5081930  13.3230670  72.4755110  47.1506340  13.7582360  71.9660590
  42.4480040  13.4776530  62.8788300  42.2722520  12.5612070  62.6656100
  41.5935780  13.8363820  63.1186100  49.6717790  11.2065560  59.6614680
  48.9782950  11.2042850  59.0016960  50.4140650  10.7824880  59.2308850
  49.2367720  12.8328270  63.7363170  49.6924670  12.0517650  64.0501790
  49.5760240  13.5435090  64.2804350  36.9870270   8.6044730  70.8953910
  37.1501310   8.1350090  70.0773280  37.4522720   8.0968290  71.5602750
  51.0463360   1.8227960  72.6646460  50.1956950   1.5233710  72.9855530
  50.8865150   2.0669970  71.7530280  48.1413070   3.3229710  74.7645250
  48.4666480   2.4893460  74.4247480  48.9293400   3.8458230  74.9123580
  41.5503260   2.8584060  63.6595730  41.3244180   2.6421230  64.5642350
  40.7695790   3.2912520  63.3141700  48.7801020   2.8647430  62.2586380
  48.1809910   3.5883230  62.0750000  49.3280630   2.8024210  61.4762830
  43.9902470   3.7569640  74.3256000  43.8946070   2.8164370  74.1756400
  44.8334450   3.9784710  73.9304070  36.6100290   2.0331890  57.7222580
  36.5274960   2.9762650  57.8637570  36.2583350   1.8906800  56.8434930
  47.9721030   4.0916720  68.3840440  47.2402150   4.6003530  68.7330540
  47.5745370   3.2746700  68.0829220  44.4718570   1.7683000  59.7799690
  44.5931390   1.7269480  60.7285510  44.0867080   2.6307150  59.6246420
  43.4840070   4.0784140  59.1782990  42.9156970   3.6302390  58.5518900
  44.1929070   4.4376920  58.6448140  38.5609250   7.9796160  73.0549720
  38.1764040   7.3389830  73.6532680  38.8721440   8.6832280  73.6244450
  44.7106390   4.8272700  68.5358340  45.0776520   4.3531270  69.2819680
  44.5211450   5.7014270  68.8766680  42.5005760   3.8681340  70.8542550
  42.1962830   4.7473320  71.0792910  43.4552220   3.9281130  70.8899990
  41.0287550   8.0742330  61.4509400  40.2549810   7.5339950  61.2908120
  41.7582180   7.5548940  61.1127160  51.7875530   7.0707690  67.2435790
  52.5074650   7.5662980  66.8531900  51.5857350   6.3925580  66.5989660
  47.1694330   7.1416750  73.1304790  47.1031640   6.2212420  72.8762380
  46.5399470   7.2392190  73.8449430  49.9633860   2.8365300  59.6827340
  50.8513480   3.1482530  59.5078680  49.9338950   1.9637550  59.2907920
  41.0724950   7.7422710  65.0888210  41.5903620   6.9390970  65.0345100
  40.6208970   7.6801850  65.9305040  45.9594450   9.0088990  60.3615510
  46.3010150   9.7531220  59.8658830  45.1307160   9.3220110  60.7240340
  38.5569490   4.7084080  72.0013910  38.1984430   5.3737930  72.5887250
  38.2624050   3.8767630  72.3726530  41.7582610   5.1668320  74.8853460
  41.4582750   5.3125500  73.9881280  42.5293850   4.6073610  74.7926850
  47.1011060   9.9637320  72.8808590  47.1155600   9.0318280  72.6627500
  46.3936160  10.0497080  73.5198360  52.2348130   4.1477140  59.1507200
  52.1511850   4.5791360  58.3003640  52.9542320   4.6075490  59.5834020
  53.3122270   6.6044660  72.2277170  52.5870460   7.1973440  72.0306560
  53.8397730   6.5968200  71.4290540  53.2635380  11.0019400  61.8789330
  52.6211540  10.3475020  62.1533050  52.8766040  11.4074490  61.1030000
  48.8421860   8.3304830  65.7261020  49.1945680   7.7332960  65.0662390
  47.9584190   8.0049060  65.8969270  44.9285140   9.0902520  63.1331430
  45.6156270   9.6371730  63.5139020  44.1417560   9.6343250  63.1681040
  37.0677540   4.7075340  58.6248510  37.9372390   4.9900140  58.9084430
  36.5767860   5.5211210  58.5097320  44.2312350   6.0948550  62.7456790
  44.6875130   6.9053800  62.9716980  43.8800560   5.7771690  63.5775280
  46.5344960  11.6054890  69.9749090  47.1787180  11.8114270  70.6522510
  46.8974400  10.8443290  69.5219940  47.8077040   9.6087240  68.6926540
  48.4499270   8.9080400  68.8058710  48.3326390  10.3885680  68.5123430
  51.6532760   9.8935860  58.4165680  51.4270340   9.1766300  59.0090320
  51.2628960   9.6448300  57.5787430  49.5814660  10.4082140  71.8962600
  49.9170900  10.9948830  72.5740520  48.6615000  10.2774850  72.1260390
  37.4348790  13.9202720  59.1910140  37.7946430  14.5192060  58.5367410
  37.2941130  14.4662610  59.9645170  51.2349010   7.8107800  60.0779840
  50.9470710   8.2720490  60.8657720  52.0301180   7.3505570  60.3464060
  37.4190650  12.1857580  73.6652540  37.5281770  11.2452320  73.5247930
  36.7671210  12.4512330  73.0166270  45.4103240  10.4573470  75.0650660
  45.0900110   9.7382710  75.6096350  44.7361600  11.1328540  75.1386720
  43.4517410  11.3033920  60.0083810  43.4427510  12.0363610  59.3928320
  42.5315770  11.0565500  60.1010770  39.0524050   6.5248810  60.7530570
  38.4452000   7.2647710  60.7625870  39.5273400   6.6148170  59.9268770
  46.4377010  11.3662160  58.6709000  46.5388990  11.1626150  57.7410980
  45.5378750  11.1120440  58.8756780  45.5858830   3.3439220  70.6525430
  46.0844080   3.8185040  71.3177280  45.7281780   2.4202740  70.8595460
  45.0795120  13.8848480  63.3656670  45.3336620  13.8469870  62.4436040
  44.1307600  13.7581810  63.3584920  51.0847700   4.8040360  64.9415180
  50.1437840   4.8190590  65.1162870  51.3991770   4.0176320  65.3875480
  41.0629340   6.4859960  58.5019140  41.8292610   6.3741320  59.0644570
  41.1404030   5.7897930  57.8495910  39.7576100   3.9185030  59.1852030
  39.8379690   2.9712540  59.2969430  40.6495850   4.2491910  59.2912690
  53.0873280  11.9749210  66.6169440  53.2120700  12.7980380  67.0893250
  53.9538840  11.7639940  66.2693590  40.5590810  14.0680420  66.2886570
  41.2953290  13.5195880  66.5595140  40.9431730  14.9336430  66.1492560
  37.4436290  10.1353990  62.1628080  36.5176070  10.3775130  62.1533490
  37.9092720  10.9628250  62.0412830  39.5649090  13.2526490  75.4772150
  40.3661820  13.5738540  75.8907550  39.0500910  12.8922070  76.1992060
  43.6693120  13.2410730  58.1112140  44.4621730  13.5299560  57.6593930
  43.1497470  12.8102900  57.4324620  48.4013720   9.3606360  75.4247560
  47.7951880   9.3837960  74.6843310  48.0967830   8.6289400  75.9614810
  49.8314090  13.0886650  74.0356970  50.7835840  13.0044670  73.9857210
  49.6842310  13.7528360  74.7090760  52.7223290  12.4680860  59.5348880
  52.4364800  12.0546000  58.7203060  52.5242840  13.3968570  59.4149400
  37.2846900   5.7399950  74.4208200  37.7885920   5.1607230  74.9924430
  36.5454320   6.0240180  74.9584570  44.1870520   8.4614140  57.9754490
  44.0821160   7.8466490  58.7015870  44.0194740   7.9380030  57.1917500
  44.3384840   7.1470940  73.9543720  43.5730510   7.7155940  73.8698390
  44.5200800   6.8547150  73.0611950  47.4273250   7.5234170  58.5796480
  46.8783350   7.9703470  59.2239220  48.0492510   7.0183420  59.1034150
  51.4808190   8.8776270  74.5118740  52.2217660   9.2152030  74.0086200
  50.7180870   9.0468330  73.9588510  39.3169980   3.8829540  75.3158270
  39.3575320   3.5843410  76.2243500  40.1715480   4.2837150  75.1565790
  43.0948370   6.4825090  60.4761780  43.5164790   6.3164960  61.3193170
  43.2199210   5.6725320  59.9816920  41.2575790   2.4621640  73.2832760
  40.7272250   1.9712590  72.6556100  41.9263860   2.8905840  72.7490690
  45.6076010   5.5062700  57.7238880  46.1281670   4.7911720  57.3580030
  46.2544410   6.1448570  58.0239390  50.1553850   6.9291100  73.0473950
  50.5694870   7.0836180  73.8964370  49.2204850   7.0546320  73.2099730
  50.6276020   4.2687260  75.0513100  51.2096790   3.5139580  74.9633580
  50.8037790   4.7994700  74.2744580  44.9169080   6.8811580  71.0169880
  45.3357190   7.7244310  70.8446120  43.9977710   7.0183620  70.7876660
  47.2532980   4.6127760  72.4007720  47.3729190   4.0168900  73.1402560
  48.1126980   4.6497450  71.9809020  49.5920880   5.1664950  70.9770230
  49.0656100   5.6907570  70.3735370  49.9352220   5.7992340  71.6079960
  41.9907270   2.5558320  57.4219940  41.7896330   1.6925680  57.7833280
  41.8199320   2.4691680  56.4841540  42.7676500  13.1864590  72.1327610
  42.2297590  13.9110650  71.8136310  43.0210460  12.7094930  71.3424950
  45.6238710  14.4215800  72.3914260  45.5497410  15.3250940  72.6986630
  44.7217550  14.1027700  72.3636330  46.1724040  13.5874310  60.0140620
  47.0674830  13.9259280  60.0359380  46.2041670  12.8653720  59.3864900
  39.8120200   8.9601360  58.2427620  40.2495070   9.5031030  58.8985200
  40.2967930   8.1348310  58.2523960  37.0266000  11.7490390  65.6947880
  37.3569010  10.8811450  65.4626520  37.4557000  11.9548910  66.5252840
  41.6227920  10.0799400  63.3549850  41.3223460   9.9564370  64.2553760
  41.5165410   9.2207990  62.9465580  37.5156210  12.6160980  68.4329510
  37.0787200  12.7961780  69.2653660  38.0833890  13.3735600  68.2911230
  53.1518390  12.1177980  72.7206820  52.5520380  12.1770540  71.9770740
  53.2812290  11.1782960  72.8503670  54.3919840   9.8595800  58.0576530
  53.5612800   9.9272450  58.5283760  54.5691670  10.7499920  57.7543390
  53.8476300   6.6043280  60.5610730  54.6095210   7.1739930  60.6670420
  53.8630670   6.0370480  61.3319040  37.3480640   5.1281210  64.7918390
  36.6929480   4.8592850  64.1478090  38.1858590   5.0185690  64.3420370
  54.8536270   7.4593380  65.4052660  55.2245100   6.6760700  64.9988630
  55.4938200   8.1482480  65.2269960  51.8370030   8.8429960  70.8182980
  51.0229870   9.2727120  71.0808770  52.2444230   9.4548370  70.2052030
  53.8995470   6.8977650  57.7183250  54.1744310   7.8056530  57.5902470
  53.7106210   6.8340180  58.6545240  53.7960810   4.8346640  62.7112680
  53.4204410   4.0674570  62.2793970  53.0663930   5.2169340  63.1987610
  38.3856570   5.5133780  69.3321730  38.7529610   5.4261180  70.2117750
  37.8167390   4.7500330  69.2328590  53.1860430   3.9818160  72.3452200
  52.9546520   3.7530910  71.4450150  53.4464980   4.9017710  72.2997090
  37.9372570   2.4242870  73.2380150  37.0428620   2.3909630  73.5773860
  38.4770120   2.6229660  74.0031400  36.5618720   2.3380140  60.7343720
  35.6582800   2.6010340  60.5595380  37.0459340   2.6091310  59.9543680
  53.0711770   3.0604130  66.0119920  53.5949250   2.5666780  65.3810090
  53.6571190   3.1954490  66.7567490  53.2501490   3.1444000  69.5339470
  52.3004200   3.1107540  69.6484460  53.4314500   4.0544110  69.2989240
  52.5611740   2.3177480  61.9512330  53.0570860   2.0848350  62.7361210
  52.3627810   1.4789320  61.5349970  51.8946080  13.5948560  64.3451250
  52.4905150  13.2733130  63.6685670  52.1524230  13.1220380  65.1364520
  39.8008650  10.0266470  74.4941880  39.7578280   9.6559380  75.3756340
  39.9319660  10.9644040  74.6343700  43.5014680  11.5826060  70.0951600
  43.2606040  11.8500620  69.2082120  44.4417320  11.7531790  70.1502460
  54.7618840  13.6020440  70.8962240  54.2677120  13.9989310  70.1789370
  54.1532130  12.9769650  71.2899520  39.6396680  12.9728720  71.6139660
  39.0457000  12.8413420  72.3529700  39.6320520  12.1366860  71.1481760
  52.4458290  14.2443860  68.1748980  51.9861260  14.9959670  67.8007000
  51.8170750  13.5250330  68.1163780  39.2708910  10.3387100  70.5647700
  38.5442970   9.7192390  70.4973650  39.3318060  10.7327710  69.6945780
  42.8754010  12.5532100  67.3497110  43.3919030  11.9419460  66.8245370
  43.5251390  13.0560880  67.8408120  45.6149510  13.4440590  68.1766090
  45.9027320  13.1894890  67.2999100  46.1272730  12.8917950  68.7671660
  37.5538910  13.6561490  63.7744460  37.3860950  13.0232170  64.4726350
  36.6873420  13.8620890  63.4238650  39.1601610  12.3494720  61.2194600
  38.6349230  12.7302750  60.5156560  39.0846190  12.9745490  61.9404310
  45.6821870  14.3656690  75.5434290  46.6089180  14.1300960  75.5870250
  45.6672300  15.1928690  75.0620320  53.9166930  13.9082260  62.5408540
  54.0919120  13.2220000  61.8969460  53.2188500  14.4329310  62.1485210
  41.7594580  14.2977100  60.0943850  42.4913400  14.0136380  59.5467740
  42.0188250  14.0590380  60.9843230  40.9209370  10.4141830  60.0990180
  40.2918250  10.8826930  60.6476010  41.0357200   9.5691050  60.5336370
  52.2499430  13.5926550  75.3675330  53.0424750  13.0975780  75.1601290
  52.5432580  14.2716690  75.9750940  48.3759090   4.4647490  46.2491380
  48.2953140   3.5502100  45.9783090  47.9623510   4.9614560  45.5431090
  46.5077130   6.2426510  48.1300650  45.7319230   5.7626950  48.4199220
  47.1590060   5.5632160  47.9556810  40.5242960   6.5546320  49.0076410
  39.6927840   6.2995030  49.4072920  41.1323940   6.6257090  49.7434330
  50.5284560  10.6486700  46.9099780  50.0666090   9.8773940  47.2386950
  51.3410110  10.6752770  47.4152230  40.5044220  10.5886410  49.2034430
  40.8072260   9.6984150  49.0244650  41.2487810  11.1456630  48.9756680
  36.8967920   4.1153860  48.6758500  37.4684030   3.3476060  48.6762140
  36.8969460   4.4142620  47.7665110  46.7547870  12.9344710  46.5303770
  46.1359310  13.3902210  45.9598210  47.6099650  13.0896170  46.1293470
  45.9486120   8.9183700  48.1370810  45.8794400   7.9773640  47.9759940
  46.7105980   9.0085110  48.7093380  42.9504030   3.0666080  48.1582360
  43.4582250   3.5647050  48.7987380  43.4817270   2.2901280  47.9821720
  47.6211220   7.8183950  43.9235680  47.0028490   8.2833400  43.3598400
  48.1334470   8.5111430  44.3405190  42.4842980   7.3459820  50.6019280
  42.1512360   7.9728740  51.2440350  42.6609660   7.8721700  49.8220950
  41.6962080   9.3140620  52.4168460  42.3136080   9.9891700  52.1352910
  40.8355200   9.7228600  52.3255960  36.9894420   8.5040480  41.2975310
  36.6122400   8.9927580  40.5660210  37.2467490   9.1765760  41.9281840
  52.6139670  10.7780030  50.3323100  51.9303190  11.4479140  50.3239770
  53.1533960  10.9760680  49.5667960  50.1498410  12.6224160  49.0468280
  50.1625570  12.2186450  48.1790540  49.5973630  13.3971450  48.9429710
  51.4443830   9.3440380  44.1358450  51.3340160   8.4014710  44.2607870
  51.4412080   9.7056020  45.0221210  49.5483850   7.5254000  50.3750890
  49.9652640   7.3114110  49.5404350  50.2723670   7.7826790  50.9459510
  46.9864110   4.9705700  43.4920940  46.0593390   4.9043080  43.7209410
  47.1388930   5.9085830  43.3776180  53.4945950   5.9241220  50.4667130
  52.6664580   5.9934310  49.9917260  54.0896430   6.5095530  49.9982960
  51.0161400   6.5326000  43.9956190  50.3973820   6.1945550  43.3482490
  50.9985850   5.8885760  44.7035380  50.4587960   2.7110540  51.4122000
  50.0459140   3.5364250  51.6661990  49.7263910   2.1255580  51.2198360
  42.5920750   5.4970440  46.2740670  42.1877750   4.7847690  45.7786570
  42.6783870   5.1523680  47.1628710  43.0602450   9.1838000  48.4379880
  42.7630740   8.5783470  47.7587660  44.0102270   9.2215310  48.3269240
  41.3049370   2.2713650  50.0539710  41.8563960   2.3808990  49.2792960
  41.8192880   2.6451250  50.7694940  42.1520880   8.9219690  55.0887680
  41.2549410   9.1459660  55.3361080  42.1773750   9.0454630  54.1399080
  49.1926100   5.7712810  41.0028940  49.6319380   4.9335240  40.8566760
  49.9054520   6.4042210  41.0893080  40.9792100   5.7933010  53.6645050
  40.8399870   6.6655810  54.0332450  40.0973460   5.4505820  53.5192990
  47.3021480  10.7108880  44.9710180  47.7417390  11.4533210  44.5565570
  47.2408370  10.9535450  45.8949140  42.7772450  11.7354710  55.8730200
  42.7487880  12.1397660  55.0058630  42.6137420  10.8065070  55.7101800
  39.2925380   4.3915420  43.7747320  39.1722980   5.1177510  43.1628590
  38.9826270   3.6218330  43.2975230  36.9310750   7.5630560  49.5815960
  37.0091170   7.6979330  48.6371680  37.5452430   6.8546450  49.7744080
  38.1758380   9.2630750  45.9922140  37.7686460   9.4045340  45.1375740
  39.0671390   8.9790910  45.7893350  54.1320520   9.7094660  54.3294380
  54.2583580   9.4706540  53.4111560  54.1741900   8.8779200  54.8016460
  47.9937260  13.4122660  52.8989190  48.5081930  13.3230670  53.7011620
  47.1506340  13.7582360  53.1917100  49.9691660  13.6978000  42.3273190
  49.8092800  13.4080940  43.2255020  49.8038370  12.9218130  41.7918420
  49.6717790  11.2065560  40.8871190  48.9782950  11.2042850  40.2273470
  50.4140650  10.7824880  40.4565360  49.2367720  12.8328270  44.9619680
  49.6924670  12.0517650  45.2758300  49.5760240  13.5435090  45.5060860
  36.9870270   8.6044730  52.1210420  37.1501310   8.1350090  51.3029790
  37.4522720   8.0968290  52.7859260  51.0463360   1.8227960  53.8902970
  50.1956950   1.5233710  54.2112040  50.8865150   2.0669970  52.9786790
  48.1413070   3.3229710  55.9901760  48.4666480   2.4893460  55.6503990
  48.9293400   3.8458230  56.1380090  41.5503260   2.8584060  44.8852240
  41.3244180   2.6421230  45.7898860  40.7695790   3.2912520  44.5398210
  48.7801020   2.8647430  43.4842890  48.1809910   3.5883230  43.3006510
  49.3280630   2.8024210  42.7019340  43.9902470   3.7569640  55.5512510
  43.8946070   2.8164370  55.4012910  44.8334450   3.9784710  55.1560580
  36.6100290   2.0331890  38.9479090  36.5274960   2.9762650  39.0894080
  36.2583350   1.8906800  38.0691440  47.9721030   4.0916720  49.6096950
  47.2402150   4.6003530  49.9587050  47.5745370   3.2746700  49.3085730
  44.4718570   1.7683000  41.0056200  44.5931390   1.7269480  41.9542020
  44.0867080   2.6307150  40.8502930  43.4840070   4.0784140  40.4039500
  42.9156970   3.6302390  39.7775410  44.1929070   4.4376920  39.8704650
  38.5609250   7.9796160  54.2806230  38.1764040   7.3389830  54.8789190
  38.8721440   8.6832280  54.8500960  44.7106390   4.8272700  49.7614850
  45.0776520   4.3531270  50.5076190  44.5211450   5.7014270  50.1023190
  42.5005760   3.8681340  52.0799060  42.1962830   4.7473320  52.3049420
  43.4552220   3.9281130  52.1156500  41.0287550   8.0742330  42.6765910
  40.2549810   7.5339950  42.5164630  41.7582180   7.5548940  42.3383670
  51.7875530   7.0707690  48.4692300  52.5074650   7.5662980  48.0788410
  51.5857350   6.3925580  47.8246170  47.1694330   7.1416750  54.3561300
  47.1031640   6.2212420  54.1018890  46.5399470   7.2392190  55.0705940
  49.9633860   2.8365300  40.9083850  50.8513480   3.1482530  40.7335190
  49.9338950   1.9637550  40.5164430  41.0724950   7.7422710  46.3144720
  41.5903620   6.9390970  46.2601610  40.6208970   7.6801850  47.1561550
  45.9594450   9.0088990  41.5872020  46.3010150   9.7531220  41.0915340
  45.1307160   9.3220110  41.9496850  38.5569490   4.7084080  53.2270420
  38.1984430   5.3737930  53.8143760  38.2624050   3.8767630  53.5983040
  41.7582610   5.1668320  56.1109970  41.4582750   5.3125500  55.2137790
  42.5293850   4.6073610  56.0183360  47.1011060   9.9637320  54.1065100
  47.1155600   9.0318280  53.8884010  46.3936160  10.0497080  54.7454870
  52.2348130   4.1477140  40.3763710  52.1511850   4.5791360  39.5260150
  52.9542320   4.6075490  40.8090530  53.3122270   6.6044660  53.4533680
  52.5870460   7.1973440  53.2563070  53.8397730   6.5968200  52.6547050
  53.2635380  11.0019400  43.1045840  52.6211540  10.3475020  43.3789560
  52.8766040  11.4074490  42.3286510  48.8421860   8.3304830  46.9517530
  49.1945680   7.7332960  46.2918900  47.9584190   8.0049060  47.1225780
  44.9285140   9.0902520  44.3587940  45.6156270   9.6371730  44.7395530
  44.1417560   9.6343250  44.3937550  37.0677540   4.7075340  39.8505020
  37.9372390   4.9900140  40.1340940  36.5767860   5.5211210  39.7353830
  44.2312350   6.0948550  43.9713300  44.6875130   6.9053800  44.1973490
  43.8800560   5.7771690  44.8031790  46.5344960  11.6054890  51.2005600
  47.1787180  11.8114270  51.8779020  46.8974400  10.8443290  50.7476450
  47.8077040   9.6087240  49.9183050  48.4499270   8.9080400  50.0315220
  48.3326390  10.3885680  49.7379940  51.6532760   9.8935860  39.6422190
  51.4270340   9.1766300  40.2346830  51.2628960   9.6448300  38.8043940
  49.5814660  10.4082140  53.1219110  49.9170900  10.9948830  53.7997030
  48.6615000  10.2774850  53.3516900  37.4348790  13.9202720  40.4166650
  37.7946430  14.5192060  39.7623920  37.2941130  14.4662610  41.1901680
  51.2349010   7.8107800  41.3036350  50.9470710   8.2720490  42.0914230
  52.0301180   7.3505570  41.5720570  37.4190650  12.1857580  54.8909050
  37.5281770  11.2452320  54.7504440  36.7671210  12.4512330  54.2422780
  45.4103240  10.4573470  56.2907170  45.0900110   9.7382710  56.8352860
  44.7361600  11.1328540  56.3643230  43.4517410  11.3033920  41.2340320
  43.4427510  12.0363610  40.6184830  42.5315770  11.0565500  41.3267280
  39.0524050   6.5248810  41.9787080  38.4452000   7.2647710  41.9882380
  39.5273400   6.6148170  41.1525280  46.4377010  11.3662160  39.8965510
  46.5388990  11.1626150  38.9667490  45.5378750  11.1120440  40.1013290
  45.5858830   3.3439220  51.8781940  46.0844080   3.8185040  52.5433790
  45.7281780   2.4202740  52.0851970  51.0847700   4.8040360  46.1671690
  50.1437840   4.8190590  46.3419380  51.3991770   4.0176320  46.6131990
  41.0629340   6.4859960  39.7275650  41.8292610   6.3741320  40.2901080
  41.1404030   5.7897930  39.0752420  39.7576100   3.9185030  40.4108540
  39.8379690   2.9712540  40.5225940  40.6495850   4.2491910  40.5169200
  53.0873280  11.9749210  47.8425950  53.2120700  12.7980380  48.3149760
  53.9538840  11.7639940  47.4950100  40.5590810  14.0680420  47.5143080
  41.2953290  13.5195880  47.7851650  40.9431730  14.9336430  47.3749070
  37.4436290  10.1353990  43.3884590  36.5176070  10.3775130  43.3790000
  37.9092720  10.9628250  43.2669340  39.5649090  13.2526490  56.7028660
  40.3661820  13.5738540  57.1164060  39.0500910  12.8922070  57.4248570
  43.6693120  13.2410730  39.3368650  44.4621730  13.5299560  38.8850440
  43.1497470  12.8102900  38.6581130  48.4013720   9.3606360  56.6504070
  47.7951880   9.3837960  55.9099820  48.0967830   8.6289400  57.1871320
  52.7223290  12.4680860  40.7605390  52.4364800  12.0546000  39.9459570
  52.5242840  13.3968570  40.6405910  37.2846900   5.7399950  55.6464710
  37.7885920   5.1607230  56.2180940  36.5454320   6.0240180  56.1841080
  44.1870520   8.4614140  39.2011000  44.0821160   7.8466490  39.9272380
  44.0194740   7.9380030  38.4174010  44.3384840   7.1470940  55.1800230
  43.5730510   7.7155940  55.0954900  44.5200800   6.8547150  54.2868460
  47.4273250   7.5234170  39.8052990  46.8783350   7.9703470  40.4495730
  48.0492510   7.0183420  40.3290660  51.4808190   8.8776270  55.7375250
  52.2217660   9.2152030  55.2342710  50.7180870   9.0468330  55.1845020
  39.3169980   3.8829540  56.5414780  39.3575320   3.5843410  57.4500010
  40.1715480   4.2837150  56.3822300  43.0948370   6.4825090  41.7018290
  43.5164790   6.3164960  42.5449680  43.2199210   5.6725320  41.2073430
  41.2575790   2.4621640  54.5089270  40.7272250   1.9712590  53.8812610
  41.9263860   2.8905840  53.9747200  45.6076010   5.5062700  38.9495390
  46.1281670   4.7911720  38.5836540  46.2544410   6.1448570  39.2495900
  50.1553850   6.9291100  54.2730460  50.5694870   7.0836180  55.1220880
  49.2204850   7.0546320  54.4356240  50.6276020   4.2687260  56.2769610
  51.2096790   3.5139580  56.1890090  50.8037790   4.7994700  55.5001090
  44.9169080   6.8811580  52.2426390  45.3357190   7.7244310  52.0702630
  43.9977710   7.0183620  52.0133170  47.2532980   4.6127760  53.6264230
  47.3729190   4.0168900  54.3659070  48.1126980   4.6497450  53.2065530
  49.5920880   5.1664950  52.2026740  49.0656100   5.6907570  51.5991880
  49.9352220   5.7992340  52.8336470  41.9907270   2.5558320  38.6476450
  41.7896330   1.6925680  39.0089790  41.8199320   2.4691680  37.7098050
  42.7676500  13.1864590  53.3584120  42.2297590  13.9110650  53.0392820
  43.0210460  12.7094930  52.5681460  45.6238710  14.4215800  53.6170770
  45.5497410  15.3250940  53.9243140  44.7217550  14.1027700  53.5892840
  39.8120200   8.9601360  39.4684130  40.2495070   9.5031030  40.1241710
  40.2967930   8.1348310  39.4780470  37.0266000  11.7490390  46.9204390
  37.3569010  10.8811450  46.6883030  37.4557000  11.9548910  47.7509350
  41.6227920  10.0799400  44.5806360  41.3223460   9.9564370  45.4810270
  41.5165410   9.2207990  44.1722090  37.5156210  12.6160980  49.6586020
  37.0787200  12.7961780  50.4910170  38.0833890  13.3735600  49.5167740
  54.3919840   9.8595800  39.2833040  53.5612800   9.9272450  39.7540270
  54.5691670  10.7499920  38.9799900  53.8476300   6.6043280  41.7867240
  54.6095210   7.1739930  41.8926930  53.8630670   6.0370480  42.5575550
  37.3480640   5.1281210  46.0174900  36.6929480   4.8592850  45.3734600
  38.1858590   5.0185690  45.5676880  54.8536270   7.4593380  46.6309170
  55.2245100   6.6760700  46.2245140  55.4938200   8.1482480  46.4526470
  51.8370030   8.8429960  52.0439490  51.0229870   9.2727120  52.3065280
  52.2444230   9.4548370  51.4308540  53.8995470   6.8977650  38.9439760
  54.1744310   7.8056530  38.8158980  53.7106210   6.8340180  39.8801750
  53.7960810   4.8346640  43.9369190  53.4204410   4.0674570  43.5050480
  53.0663930   5.2169340  44.4244120  38.3856570   5.5133780  50.5578240
  38.7529610   5.4261180  51.4374260  37.8167390   4.7500330  50.4585100
  53.1860430   3.9818160  53.5708710  52.9546520   3.7530910  52.6706660
  53.4464980   4.9017710  53.5253600  37.9372570   2.4242870  54.4636660
  37.0428620   2.3909630  54.8030370  38.4770120   2.6229660  55.2287910
  36.5618720   2.3380140  41.9600230  35.6582800   2.6010340  41.7851890
  37.0459340   2.6091310  41.1800190  53.0711770   3.0604130  47.2376430
  53.5949250   2.5666780  46.6066600  53.6571190   3.1954490  47.9824000
  53.2501490   3.1444000  50.7595980  52.3004200   3.1107540  50.8740970
  53.4314500   4.0544110  50.5245750  52.5611740   2.3177480  43.1768840
  53.0570860   2.0848350  43.9617720  52.3627810   1.4789320  42.7606480
  51.8946080  13.5948560  45.5707760  52.4905150  13.2733130  44.8942180
  52.1524230  13.1220380  46.3621030  39.8008650  10.0266470  55.7198390
  39.7578280   9.6559380  56.6012850  39.9319660  10.9644040  55.8600210
  43.5014680  11.5826060  51.3208110  43.2606040  11.8500620  50.4338630
  44.4417320  11.7531790  51.3758970  39.6396680  12.9728720  52.8396170
  39.0457000  12.8413420  53.5786210  39.6320520  12.1366860  52.3738270
  39.2708910  10.3387100  51.7904210  38.5442970   9.7192390  51.7230160
  39.3318060  10.7327710  50.9202290  42.8754010  12.5532100  48.5753620
  43.3919030  11.9419460  48.0501880  43.5251390  13.0560880  49.0664630
  45.6149510  13.4440590  49.4022600  45.9027320  13.1894890  48.5255610
  46.1272730  12.8917950  49.9928170  37.5538910  13.6561490  45.0000970
  37.3860950  13.0232170  45.6982860  36.6873420  13.8620890  44.6495160
  39.1601610  12.3494720  42.4451110  38.6349230  12.7302750  41.7413070
  39.0846190  12.9745490  43.1660820  45.6821870  14.3656690  56.7690800
  46.6089180  14.1300960  56.8126760  45.6672300  15.1928690  56.2876830
  53.9166930  13.9082260  43.7665050  54.0919120  13.2220000  43.1225970
  53.2188500  14.4329310  43.3741720  41.7594580  14.2977100  41.3200360
  42.4913400  14.0136380  40.7724250  42.0188250  14.0590380  42.2099740
  40.9209370  10.4141830  41.3246690  40.2918250  10.8826930  41.8732520
  41.0357200   9.5691050  41.7592880  48.3759090   4.4647490  27.4747890
  48.2953140   3.5502100  27.2039600  47.9623510   4.9614560  26.7687600
  46.5077130   6.2426510  29.3557160  45.7319230   5.7626950  29.6455730
  47.1590060   5.5632160  29.1813320  40.5242960   6.5546320  30.2332920
  39.6927840   6.2995030  30.6329430  41.1323940   6.6257090  30.9690840
  50.5284560  10.6486700  28.1356290  50.0666090   9.8773940  28.4643460
  51.3410110  10.6752770  28.6408740  40.5044220  10.5886410  30.4290940
  40.8072260   9.6984150  30.2501160  41.2487810  11.1456630  30.2013190
  36.8967920   4.1153860  29.9015010  37.4684030   3.3476060  29.9018650
  36.8969460   4.4142620  28.9921620  46.7547870  12.9344710  27.7560280
  46.1359310  13.3902210  27.1854720  47.6099650  13.0896170  27.3549980
  45.9486120   8.9183700  29.3627320  45.8794400   7.9773640  29.2016450
  46.7105980   9.0085110  29.9349890  42.9504030   3.0666080  29.3838870
  43.4582250   3.5647050  30.0243890  43.4817270   2.2901280  29.2078230
  47.6211220   7.8183950  25.1492190  47.0028490   8.2833400  24.5854910
  48.1334470   8.5111430  25.5661700  42.4842980   7.3459820  31.8275790
  42.1512360   7.9728740  32.4696860  42.6609660   7.8721700  31.0477460
  41.6962080   9.3140620  33.6424970  42.3136080   9.9891700  33.3609420
  40.8355200   9.7228600  33.5512470  36.9894420   8.5040480  22.5231820
  36.6122400   8.9927580  21.7916720  37.2467490   9.1765760  23.1538350
  52.6139670  10.7780030  31.5579610  51.9303190  11.4479140  31.5496280
  53.1533960  10.9760680  30.7924470  50.1498410  12.6224160  30.2724790
  50.1625570  12.2186450  29.4047050  49.5973630  13.3971450  30.1686220
  51.4443830   9.3440380  25.3614960  51.3340160   8.4014710  25.4864380
  51.4412080   9.7056020  26.2477720  49.5483850   7.5254000  31.6007400
  49.9652640   7.3114110  30.7660860  50.2723670   7.7826790  32.1716020
  46.9864110   4.9705700  24.7177450  46.0593390   4.9043080  24.9465920
  47.1388930   5.9085830  24.6032690  53.4945950   5.9241220  31.6923640
  52.6664580   5.9934310  31.2173770  54.0896430   6.5095530  31.2239470
  51.0161400   6.5326000  25.2212700  50.3973820   6.1945550  24.5739000
  50.9985850   5.8885760  25.9291890  50.4587960   2.7110540  32.6378510
  50.0459140   3.5364250  32.8918500  49.7263910   2.1255580  32.4454870
  42.5920750   5.4970440  27.4997180  42.1877750   4.7847690  27.0043080
  42.6783870   5.1523680  28.3885220  43.0602450   9.1838000  29.6636390
  42.7630740   8.5783470  28.9844170  44.0102270   9.2215310  29.5525750
  41.3049370   2.2713650  31.2796220  41.8563960   2.3808990  30.5049470
  41.8192880   2.6451250  31.9951450  42.1520880   8.9219690  36.3144190
  41.2549410   9.1459660  36.5617590  42.1773750   9.0454630  35.3655590
  49.1926100   5.7712810  22.2285450  49.6319380   4.9335240  22.0823270
  49.9054520   6.4042210  22.3149590  40.9792100   5.7933010  34.8901560
  40.8399870   6.6655810  35.2588960  40.0973460   5.4505820  34.7449500
  47.3021480  10.7108880  26.1966690  47.7417390  11.4533210  25.7822080
  47.2408370  10.9535450  27.1205650  42.7772450  11.7354710  37.0986710
  42.7487880  12.1397660  36.2315140  42.6137420  10.8065070  36.9358310
  39.2925380   4.3915420  25.0003830  39.1722980   5.1177510  24.3885100
  38.9826270   3.6218330  24.5231740  54.7287270  12.5181810  38.3950880
  55.2046990  12.9964700  39.0739960  55.3494430  12.4499300  37.6696380
  36.9310750   7.5630560  30.8072470  37.0091170   7.6979330  29.8628190
  37.5452430   6.8546450  31.0000590  38.1758380   9.2630750  27.2178650
  37.7686460   9.4045340  26.3632250  39.0671390   8.9790910  27.0149860
  54.1320520   9.7094660  35.5550890  54.2583580   9.4706540  34.6368070
  54.1741900   8.8779200  36.0272970  47.9937260  13.4122660  34.1245700
  48.5081930  13.3230670  34.9268130  47.1506340  13.7582360  34.4173610
  49.9691660  13.6978000  23.5529700  49.8092800  13.4080940  24.4511530
  49.8038370  12.9218130  23.0174930  42.4480040  13.4776530  25.3301320
  42.2722520  12.5612070  25.1169120  41.5935780  13.8363820  25.5699120
  49.6717790  11.2065560  22.1127700  48.9782950  11.2042850  21.4529980
  50.4140650  10.7824880  21.6821870  49.2367720  12.8328270  26.1876190
  49.6924670  12.0517650  26.5014810  49.5760240  13.5435090  26.7317370
  36.9870270   8.6044730  33.3466930  37.1501310   8.1350090  32.5286300
  37.4522720   8.0968290  34.0115770  51.0463360   1.8227960  35.1159480
  50.1956950   1.5233710  35.4368550  50.8865150   2.0669970  34.2043300
  48.1413070   3.3229710  37.2158270  48.4666480   2.4893460  36.8760500
  48.9293400   3.8458230  37.3636600  41.5503260   2.8584060  26.1108750
  41.3244180   2.6421230  27.0155370  40.7695790   3.2912520  25.7654720
  48.7801020   2.8647430  24.7099400  48.1809910   3.5883230  24.5263020
  49.3280630   2.8024210  23.9275850  43.9902470   3.7569640  36.7769020
  43.8946070   2.8164370  36.6269420  44.8334450   3.9784710  36.3817090
  36.6100290   2.0331890  20.1735600  36.5274960   2.9762650  20.3150590
  36.2583350   1.8906800  19.2947950  47.9721030   4.0916720  30.8353460
  47.2402150   4.6003530  31.1843560  47.5745370   3.2746700  30.5342240
  44.4718570   1.7683000  22.2312710  44.5931390   1.7269480  23.1798530
  44.0867080   2.6307150  22.0759440  43.4840070   4.0784140  21.6296010
  42.9156970   3.6302390  21.0031920  44.1929070   4.4376920  21.0961160
  38.5609250   7.9796160  35.5062740  38.1764040   7.3389830  36.1045700
  38.8721440   8.6832280  36.0757470  44.7106390   4.8272700  30.9871360
  45.0776520   4.3531270  31.7332700  44.5211450   5.7014270  31.3279700
  42.5005760   3.8681340  33.3055570  42.1962830   4.7473320  33.5305930
  43.4552220   3.9281130  33.3413010  41.0287550   8.0742330  23.9022420
  40.2549810   7.5339950  23.7421140  41.7582180   7.5548940  23.5640180
  51.7875530   7.0707690  29.6948810  52.5074650   7.5662980  29.3044920
  51.5857350   6.3925580  29.0502680  47.1694330   7.1416750  35.5817810
  47.1031640   6.2212420  35.3275400  46.5399470   7.2392190  36.2962450
  49.9633860   2.8365300  22.1340360  50.8513480   3.1482530  21.9591700
  49.9338950   1.9637550  21.7420940  41.0724950   7.7422710  27.5401230
  41.5903620   6.9390970  27.4858120  40.6208970   7.6801850  28.3818060
  45.9594450   9.0088990  22.8128530  46.3010150   9.7531220  22.3171850
  45.1307160   9.3220110  23.1753360  38.5569490   4.7084080  34.4526930
  38.1984430   5.3737930  35.0400270  38.2624050   3.8767630  34.8239550
  41.7582610   5.1668320  37.3366480  41.4582750   5.3125500  36.4394300
  42.5293850   4.6073610  37.2439870  47.1011060   9.9637320  35.3321610
  47.1155600   9.0318280  35.1140520  46.3936160  10.0497080  35.9711380
  52.2348130   4.1477140  21.6020220  52.1511850   4.5791360  20.7516660
  52.9542320   4.6075490  22.0347040  53.3122270   6.6044660  34.6790190
  52.5870460   7.1973440  34.4819580  53.8397730   6.5968200  33.8803560
  53.2635380  11.0019400  24.3302350  52.6211540  10.3475020  24.6046070
  52.8766040  11.4074490  23.5543020  48.8421860   8.3304830  28.1774040
  49.1945680   7.7332960  27.5175410  47.9584190   8.0049060  28.3482290
  44.9285140   9.0902520  25.5844450  45.6156270   9.6371730  25.9652040
  44.1417560   9.6343250  25.6194060  37.0677540   4.7075340  21.0761530
  37.9372390   4.9900140  21.3597450  36.5767860   5.5211210  20.9610340
  44.2312350   6.0948550  25.1969810  44.6875130   6.9053800  25.4230000
  43.8800560   5.7771690  26.0288300  46.5344960  11.6054890  32.4262110
  47.1787180  11.8114270  33.1035530  46.8974400  10.8443290  31.9732960
  47.8077040   9.6087240  31.1439560  48.4499270   8.9080400  31.2571730
  48.3326390  10.3885680  30.9636450  51.6532760   9.8935860  20.8678700
  51.4270340   9.1766300  21.4603340  51.2628960   9.6448300  20.0300450
  49.5814660  10.4082140  34.3475620  49.9170900  10.9948830  35.0253540
  48.6615000  10.2774850  34.5773410  37.4348790  13.9202720  21.6423160
  37.7946430  14.5192060  20.9880430  37.2941130  14.4662610  22.4158190
  51.2349010   7.8107800  22.5292860  50.9470710   8.2720490  23.3170740
  52.0301180   7.3505570  22.7977080  37.4190650  12.1857580  36.1165560
  37.5281770  11.2452320  35.9760950  36.7671210  12.4512330  35.4679290
  45.4103240  10.4573470  37.5163680  45.0900110   9.7382710  38.0609370
  44.7361600  11.1328540  37.5899740  43.4517410  11.3033920  22.4596830
  43.4427510  12.0363610  21.8441340  42.5315770  11.0565500  22.5523790
  39.0524050   6.5248810  23.2043590  38.4452000   7.2647710  23.2138890
  39.5273400   6.6148170  22.3781790  46.4377010  11.3662160  21.1222020
  46.5388990  11.1626150  20.1924000  45.5378750  11.1120440  21.3269800
  45.5858830   3.3439220  33.1038450  46.0844080   3.8185040  33.7690300
  45.7281780   2.4202740  33.3108480  45.0795120  13.8848480  25.8169690
  45.3336620  13.8469870  24.8949060  44.1307600  13.7581810  25.8097940
  51.0847700   4.8040360  27.3928200  50.1437840   4.8190590  27.5675890
  51.3991770   4.0176320  27.8388500  41.0629340   6.4859960  20.9532160
  41.8292610   6.3741320  21.5157590  41.1404030   5.7897930  20.3008930
  39.7576100   3.9185030  21.6365050  39.8379690   2.9712540  21.7482450
  40.6495850   4.2491910  21.7425710  53.0873280  11.9749210  29.0682460
  53.2120700  12.7980380  29.5406270  53.9538840  11.7639940  28.7206610
  40.5590810  14.0680420  28.7399590  41.2953290  13.5195880  29.0108160
  40.9431730  14.9336430  28.6005580  37.4436290  10.1353990  24.6141100
  36.5176070  10.3775130  24.6046510  37.9092720  10.9628250  24.4925850
  39.5649090  13.2526490  37.9285170  40.3661820  13.5738540  38.3420570
  39.0500910  12.8922070  38.6505080  43.6693120  13.2410730  20.5625160
  44.4621730  13.5299560  20.1106950  43.1497470  12.8102900  19.8837640
  48.4013720   9.3606360  37.8760580  47.7951880   9.3837960  37.1356330
  48.0967830   8.6289400  38.4127830  52.7223290  12.4680860  21.9861900
  52.4364800  12.0546000  21.1716080  52.5242840  13.3968570  21.8662420
  37.2846900   5.7399950  36.8721220  37.7885920   5.1607230  37.4437450
  36.5454320   6.0240180  37.4097590  44.1870520   8.4614140  20.4267510
  44.0821160   7.8466490  21.1528890  44.0194740   7.9380030  19.6430520
  44.3384840   7.1470940  36.4056740  43.5730510   7.7155940  36.3211410
  44.5200800   6.8547150  35.5124970  47.4273250   7.5234170  21.0309500
  46.8783350   7.9703470  21.6752240  48.0492510   7.0183420  21.5547170
  51.4808190   8.8776270  36.9631760  52.2217660   9.2152030  36.4599220
  50.7180870   9.0468330  36.4101530  39.3169980   3.8829540  37.7671290
  39.3575320   3.5843410  38.6756520  40.1715480   4.2837150  37.6078810
  43.0948370   6.4825090  22.9274800  43.5164790   6.3164960  23.7706190
  43.2199210   5.6725320  22.4329940  41.2575790   2.4621640  35.7345780
  40.7272250   1.9712590  35.1069120  41.9263860   2.8905840  35.2003710
  45.6076010   5.5062700  20.1751900  46.1281670   4.7911720  19.8093050
  46.2544410   6.1448570  20.4752410  50.1553850   6.9291100  35.4986970
  50.5694870   7.0836180  36.3477390  49.2204850   7.0546320  35.6612750
  50.6276020   4.2687260  37.5026120  51.2096790   3.5139580  37.4146600
  50.8037790   4.7994700  36.7257600  44.9169080   6.8811580  33.4682900
  45.3357190   7.7244310  33.2959140  43.9977710   7.0183620  33.2389680
  47.2532980   4.6127760  34.8520740  47.3729190   4.0168900  35.5915580
  48.1126980   4.6497450  34.4322040  49.5920880   5.1664950  33.4283250
  49.0656100   5.6907570  32.8248390  49.9352220   5.7992340  34.0592980
  41.9907270   2.5558320  19.8732960  41.7896330   1.6925680  20.2346300
  41.8199320   2.4691680  18.9354560  42.7676500  13.1864590  34.5840630
  42.2297590  13.9110650  34.2649330  43.0210460  12.7094930  33.7937970
  45.6238710  14.4215800  34.8427280  45.5497410  15.3250940  35.1499650
  44.7217550  14.1027700  34.8149350  46.1724040  13.5874310  22.4653640
  47.0674830  13.9259280  22.4872400  46.2041670  12.8653720  21.8377920
  39.8120200   8.9601360  20.6940640  40.2495070   9.5031030  21.3498220
  40.2967930   8.1348310  20.7036980  37.0266000  11.7490390  28.1460900
  37.3569010  10.8811450  27.9139540  37.4557000  11.9548910  28.9765860
  41.6227920  10.0799400  25.8062870  41.3223460   9.9564370  26.7066780
  41.5165410   9.2207990  25.3978600  37.5156210  12.6160980  30.8842530
  37.0787200  12.7961780  31.7166680  38.0833890  13.3735600  30.7424250
  53.1518390  12.1177980  35.1719840  52.5520380  12.1770540  34.4283760
  53.2812290  11.1782960  35.3016690  54.3919840   9.8595800  20.5089550
  53.5612800   9.9272450  20.9796780  54.5691670  10.7499920  20.2056410
  53.8476300   6.6043280  23.0123750  54.6095210   7.1739930  23.1183440
  53.8630670   6.0370480  23.7832060  37.3480640   5.1281210  27.2431410
  36.6929480   4.8592850  26.5991110  38.1858590   5.0185690  26.7933390
  54.8536270   7.4593380  27.8565680  55.2245100   6.6760700  27.4501650
  55.4938200   8.1482480  27.6782980  51.8370030   8.8429960  33.2696000
  51.0229870   9.2727120  33.5321790  52.2444230   9.4548370  32.6565050
  53.8995470   6.8977650  20.1696270  54.1744310   7.8056530  20.0415490
  53.7106210   6.8340180  21.1058260  53.7960810   4.8346640  25.1625700
  53.4204410   4.0674570  24.7306990  53.0663930   5.2169340  25.6500630
  38.3856570   5.5133780  31.7834750  38.7529610   5.4261180  32.6630770
  37.8167390   4.7500330  31.6841610  53.1860430   3.9818160  34.7965220
  52.9546520   3.7530910  33.8963170  53.4464980   4.9017710  34.7510110
  37.9372570   2.4242870  35.6893170  37.0428620   2.3909630  36.0286880
  38.4770120   2.6229660  36.4544420  36.5618720   2.3380140  23.1856740
  35.6582800   2.6010340  23.0108400  37.0459340   2.6091310  22.4056700
  53.0711770   3.0604130  28.4632940  53.5949250   2.5666780  27.8323110
  53.6571190   3.1954490  29.2080510  53.2501490   3.1444000  31.9852490
  52.3004200   3.1107540  32.0997480  53.4314500   4.0544110  31.7502260
  52.5611740   2.3177480  24.4025350  53.0570860   2.0848350  25.1874230
  52.3627810   1.4789320  23.9862990  51.8946080  13.5948560  26.7964270
  52.4905150  13.2733130  26.1198690  52.1524230  13.1220380  27.5877540
  39.8008650  10.0266470  36.9454900  39.7578280   9.6559380  37.8269360
  39.9319660  10.9644040  37.0856720  43.5014680  11.5826060  32.5464620
  43.2606040  11.8500620  31.6595140  44.4417320  11.7531790  32.6015480
  39.6396680  12.9728720  34.0652680  39.0457000  12.8413420  34.8042720
  39.6320520  12.1366860  33.5994780  39.2708910  10.3387100  33.0160720
  38.5442970   9.7192390  32.9486670  39.3318060  10.7327710  32.1458800
  42.8754010  12.5532100  29.8010130  43.3919030  11.9419460  29.2758390
  43.5251390  13.0560880  30.2921140  45.6149510  13.4440590  30.6279110
  45.9027320  13.1894890  29.7512120  46.1272730  12.8917950  31.2184680
  37.5538910  13.6561490  26.2257480  37.3860950  13.0232170  26.9239370
  36.6873420  13.8620890  25.8751670  39.1601610  12.3494720  23.6707620
  38.6349230  12.7302750  22.9669580  39.0846190  12.9745490  24.3917330
  53.9166930  13.9082260  24.9921560  54.0919120  13.2220000  24.3482480
  53.2188500  14.4329310  24.5998230  41.7594580  14.2977100  22.5456870
  42.4913400  14.0136380  21.9980760  42.0188250  14.0590380  23.4356250
  40.9209370  10.4141830  22.5503200  40.2918250  10.8826930  23.0989030
  41.0357200   9.5691050  22.9849390  48.3759090   4.4647490   8.7004400
  48.2953140   3.5502100   8.4296110  47.9623510   4.9614560   7.9944110
  46.5077130   6.2426510  10.5813670  45.7319230   5.7626950  10.8712240
  47.1590060   5.5632160  10.4069830  40.5242960   6.5546320  11.4589430
  39.6927840   6.2995030  11.8585940  41.1323940   6.6257090  12.1947350
  50.5284560  10.6486700   9.3612800  50.0666090   9.8773940   9.6899970
  51.3410110  10.6752770   9.8665250  40.5044220  10.5886410  11.6547450
  40.8072260   9.6984150  11.4757670  41.2487810  11.1456630  11.4269700
  36.8967920   4.1153860  11.1271520  37.4684030   3.3476060  11.1275160
  36.8969460   4.4142620  10.2178130  46.7547870  12.9344710   8.9816790
  46.1359310  13.3902210   8.4111230  47.6099650  13.0896170   8.5806490
  45.9486120   8.9183700  10.5883830  45.8794400   7.9773640  10.4272960
  46.7105980   9.0085110  11.1606400  42.9504030   3.0666080  10.6095380
  43.4582250   3.5647050  11.2500400  43.4817270   2.2901280  10.4334740
  47.6211220   7.8183950   6.3748700  47.0028490   8.2833400   5.8111420
  48.1334470   8.5111430   6.7918210  42.4842980   7.3459820  13.0532300
  42.1512360   7.9728740  13.6953370  42.6609660   7.8721700  12.2733970
  41.6962080   9.3140620  14.8681480  42.3136080   9.9891700  14.5865930
  40.8355200   9.7228600  14.7768980  36.9894420   8.5040480   3.7488330
  36.6122400   8.9927580   3.0173230  37.2467490   9.1765760   4.3794860
  52.6139670  10.7780030  12.7836120  51.9303190  11.4479140  12.7752790
  53.1533960  10.9760680  12.0180980  50.1498410  12.6224160  11.4981300
  50.1625570  12.2186450  10.6303560  49.5973630  13.3971450  11.3942730
  51.4443830   9.3440380   6.5871470  51.3340160   8.4014710   6.7120890
  51.4412080   9.7056020   7.4734230  49.5483850   7.5254000  12.8263910
  49.9652640   7.3114110  11.9917370  50.2723670   7.7826790  13.3972530
  46.9864110   4.9705700   5.9433960  46.0593390   4.9043080   6.1722430
  47.1388930   5.9085830   5.8289200  53.4945950   5.9241220  12.9180150
  52.6664580   5.9934310  12.4430280  54.0896430   6.5095530  12.4495980
  51.0161400   6.5326000   6.4469210  50.3973820   6.1945550   5.7995510
  50.9985850   5.8885760   7.1548400  50.4587960   2.7110540  13.8635020
  50.0459140   3.5364250  14.1175010  49.7263910   2.1255580  13.6711380
  42.5920750   5.4970440   8.7253690  42.1877750   4.7847690   8.2299590
  42.6783870   5.1523680   9.6141730  43.0602450   9.1838000  10.8892900
  42.7630740   8.5783470  10.2100680  44.0102270   9.2215310  10.7782260
  41.3049370   2.2713650  12.5052730  41.8563960   2.3808990  11.7305980
  41.8192880   2.6451250  13.2207960  51.1488060  12.7569870  14.5516000
  50.6718620  13.5642060  14.3588610  50.4649850  12.1048200  14.7042210
  42.1520880   8.9219690  17.5400700  41.2549410   9.1459660  17.7874100
  42.1773750   9.0454630  16.5912100  49.1926100   5.7712810   3.4541960
  49.6319380   4.9335240   3.3079780  49.9054520   6.4042210   3.5406100
  40.9792100   5.7933010  16.1158070  40.8399870   6.6655810  16.4845470
  40.0973460   5.4505820  15.9706010  47.3021480  10.7108880   7.4223200
  47.7417390  11.4533210   7.0078590  47.2408370  10.9535450   8.3462160
  42.7772450  11.7354710  18.3243220  42.7487880  12.1397660  17.4571650
  42.6137420  10.8065070  18.1614820  39.2925380   4.3915420   6.2260340
  39.1722980   5.1177510   5.6141610  38.9826270   3.6218330   5.7488250
  54.7287270  12.5181810  19.6207390  55.2046990  12.9964700  20.2996470
  55.3494430  12.4499300  18.8952890  36.9310750   7.5630560  12.0328980
  37.0091170   7.6979330  11.0884700  37.5452430   6.8546450  12.2257100
  38.1758380   9.2630750   8.4435160  37.7686460   9.4045340   7.5888760
  39.0671390   8.9790910   8.2406370  54.1320520   9.7094660  16.7807400
  54.2583580   9.4706540  15.8624580  54.1741900   8.8779200  17.2529480
  47.9937260  13.4122660  15.3502210  48.5081930  13.3230670  16.1524640
  47.1506340  13.7582360  15.6430120  49.9691660  13.6978000   4.7786210
  49.8092800  13.4080940   5.6768040  49.8038370  12.9218130   4.2431440
  42.4480040  13.4776530   6.5557830  42.2722520  12.5612070   6.3425630
  41.5935780  13.8363820   6.7955630  49.6717790  11.2065560   3.3384210
  48.9782950  11.2042850   2.6786490  50.4140650  10.7824880   2.9078380
  49.2367720  12.8328270   7.4132700  49.6924670  12.0517650   7.7271320
  49.5760240  13.5435090   7.9573880  36.9870270   8.6044730  14.5723440
  37.1501310   8.1350090  13.7542810  37.4522720   8.0968290  15.2372280
  51.0463360   1.8227960  16.3415990  50.1956950   1.5233710  16.6625060
  50.8865150   2.0669970  15.4299810  48.1413070   3.3229710  18.4414780
  48.4666480   2.4893460  18.1017010  48.9293400   3.8458230  18.5893110
  41.5503260   2.8584060   7.3365260  41.3244180   2.6421230   8.2411880
  40.7695790   3.2912520   6.9911230  48.7801020   2.8647430   5.9355910
  48.1809910   3.5883230   5.7519530  49.3280630   2.8024210   5.1532360
  43.9902470   3.7569640  18.0025530  43.8946070   2.8164370  17.8525930
  44.8334450   3.9784710  17.6073600  47.9721030   4.0916720  12.0609970
  47.2402150   4.6003530  12.4100070  47.5745370   3.2746700  11.7598750
  44.4718570   1.7683000   3.4569220  44.5931390   1.7269480   4.4055040
  44.0867080   2.6307150   3.3015950  43.4840070   4.0784140   2.8552520
  42.9156970   3.6302390   2.2288430  44.1929070   4.4376920   2.3217670
  38.5609250   7.9796160  16.7319250  38.1764040   7.3389830  17.3302210
  38.8721440   8.6832280  17.3013980  44.7106390   4.8272700  12.2127870
  45.0776520   4.3531270  12.9589210  44.5211450   5.7014270  12.5536210
  42.5005760   3.8681340  14.5312080  42.1962830   4.7473320  14.7562440
  43.4552220   3.9281130  14.5669520  41.0287550   8.0742330   5.1278930
  40.2549810   7.5339950   4.9677650  41.7582180   7.5548940   4.7896690
  51.7875530   7.0707690  10.9205320  52.5074650   7.5662980  10.5301430
  51.5857350   6.3925580  10.2759190  47.1694330   7.1416750  16.8074320
  47.1031640   6.2212420  16.5531910  46.5399470   7.2392190  17.5218960
  49.9633860   2.8365300   3.3596870  50.8513480   3.1482530   3.1848210
  49.9338950   1.9637550   2.9677450  41.0724950   7.7422710   8.7657740
  41.5903620   6.9390970   8.7114630  40.6208970   7.6801850   9.6074570
  45.9594450   9.0088990   4.0385040  46.3010150   9.7531220   3.5428360
  45.1307160   9.3220110   4.4009870  38.5569490   4.7084080  15.6783440
  38.1984430   5.3737930  16.2656780  38.2624050   3.8767630  16.0496060
  41.7582610   5.1668320  18.5622990  41.4582750   5.3125500  17.6650810
  42.5293850   4.6073610  18.4696380  47.1011060   9.9637320  16.5578120
  47.1155600   9.0318280  16.3397030  46.3936160  10.0497080  17.1967890
  52.2348130   4.1477140   2.8276730  52.1511850   4.5791360   1.9773170
  52.9542320   4.6075490   3.2603550  53.3122270   6.6044660  15.9046700
  52.5870460   7.1973440  15.7076090  53.8397730   6.5968200  15.1060070
  53.2635380  11.0019400   5.5558860  52.6211540  10.3475020   5.8302580
  52.8766040  11.4074490   4.7799530  48.8421860   8.3304830   9.4030550
  49.1945680   7.7332960   8.7431920  47.9584190   8.0049060   9.5738800
  44.9285140   9.0902520   6.8100960  45.6156270   9.6371730   7.1908550
  44.1417560   9.6343250   6.8450570  37.0677540   4.7075340   2.3018040
  37.9372390   4.9900140   2.5853960  36.5767860   5.5211210   2.1866850
  44.2312350   6.0948550   6.4226320  44.6875130   6.9053800   6.6486510
  43.8800560   5.7771690   7.2544810  46.5344960  11.6054890  13.6518620
  47.1787180  11.8114270  14.3292040  46.8974400  10.8443290  13.1989470
  47.8077040   9.6087240  12.3696070  48.4499270   8.9080400  12.4828240
  48.3326390  10.3885680  12.1892960  49.5814660  10.4082140  15.5732130
  49.9170900  10.9948830  16.2510050  48.6615000  10.2774850  15.8029920
  37.4348790  13.9202720   2.8679670  37.7946430  14.5192060   2.2136940
  37.2941130  14.4662610   3.6414700  51.2349010   7.8107800   3.7549370
  50.9470710   8.2720490   4.5427250  52.0301180   7.3505570   4.0233590
  37.4190650  12.1857580  17.3422070  37.5281770  11.2452320  17.2017460
  36.7671210  12.4512330  16.6935800  45.4103240  10.4573470  18.7420190
  45.0900110   9.7382710  19.2865880  44.7361600  11.1328540  18.8156250
  43.4517410  11.3033920   3.6853340  43.4427510  12.0363610   3.0697850
  42.5315770  11.0565500   3.7780300  39.0524050   6.5248810   4.4300100
  38.4452000   7.2647710   4.4395400  39.5273400   6.6148170   3.6038300
  45.5858830   3.3439220  14.3294960  46.0844080   3.8185040  14.9946810
  45.7281780   2.4202740  14.5364990  45.0795120  13.8848480   7.0426200
  45.3336620  13.8469870   6.1205570  44.1307600  13.7581810   7.0354450
  51.0847700   4.8040360   8.6184710  50.1437840   4.8190590   8.7932400
  51.3991770   4.0176320   9.0645010  39.7576100   3.9185030   2.8621560
  39.8379690   2.9712540   2.9738960  40.6495850   4.2491910   2.9682220
  53.0873280  11.9749210  10.2938970  53.2120700  12.7980380  10.7662780
  53.9538840  11.7639940   9.9463120  40.5590810  14.0680420   9.9656100
  41.2953290  13.5195880  10.2364670  40.9431730  14.9336430   9.8262090
  37.4436290  10.1353990   5.8397610  36.5176070  10.3775130   5.8303020
  37.9092720  10.9628250   5.7182360  39.5649090  13.2526490  19.1541680
  40.3661820  13.5738540  19.5677080  39.0500910  12.8922070  19.8761590
  48.4013720   9.3606360  19.1017090  47.7951880   9.3837960  18.3612840
  48.0967830   8.6289400  19.6384340  49.8314090  13.0886650  17.7126500
  50.7835840  13.0044670  17.6626740  49.6842310  13.7528360  18.3860290
  52.7223290  12.4680860   3.2118410  52.4364800  12.0546000   2.3972590
  52.5242840  13.3968570   3.0918930  37.2846900   5.7399950  18.0977730
  37.7885920   5.1607230  18.6693960  36.5454320   6.0240180  18.6354100
  44.3384840   7.1470940  17.6313250  43.5730510   7.7155940  17.5467920
  44.5200800   6.8547150  16.7381480  47.4273250   7.5234170   2.2566010
  46.8783350   7.9703470   2.9008750  48.0492510   7.0183420   2.7803680
  51.4808190   8.8776270  18.1888270  52.2217660   9.2152030  17.6855730
  50.7180870   9.0468330  17.6358040  39.3169980   3.8829540  18.9927800
  39.3575320   3.5843410  19.9013030  40.1715480   4.2837150  18.8335320
  43.0948370   6.4825090   4.1531310  43.5164790   6.3164960   4.9962700
  43.2199210   5.6725320   3.6586450  41.2575790   2.4621640  16.9602290
  40.7272250   1.9712590  16.3325630  41.9263860   2.8905840  16.4260220
  50.1553850   6.9291100  16.7243480  50.5694870   7.0836180  17.5733900
  49.2204850   7.0546320  16.8869260  50.6276020   4.2687260  18.7282630
  51.2096790   3.5139580  18.6403110  50.8037790   4.7994700  17.9514110
  44.9169080   6.8811580  14.6939410  45.3357190   7.7244310  14.5215650
  43.9977710   7.0183620  14.4646190  47.2532980   4.6127760  16.0777250
  47.3729190   4.0168900  16.8172090  48.1126980   4.6497450  15.6578550
  49.5920880   5.1664950  14.6539760  49.0656100   5.6907570  14.0504900
  49.9352220   5.7992340  15.2849490  42.7676500  13.1864590  15.8097140
  42.2297590  13.9110650  15.4905840  43.0210460  12.7094930  15.0194480
  45.6238710  14.4215800  16.0683790  45.5497410  15.3250940  16.3756160
  44.7217550  14.1027700  16.0405860  46.1724040  13.5874310   3.6910150
  47.0674830  13.9259280   3.7128910  46.2041670  12.8653720   3.0634430
  39.8120200   8.9601360   1.9197150  40.2495070   9.5031030   2.5754730
  40.2967930   8.1348310   1.9293490  37.0266000  11.7490390   9.3717410
  37.3569010  10.8811450   9.1396050  37.4557000  11.9548910  10.2022370
  41.6227920  10.0799400   7.0319380  41.3223460   9.9564370   7.9323290
  41.5165410   9.2207990   6.6235110  37.5156210  12.6160980  12.1099040
  37.0787200  12.7961780  12.9423190  38.0833890  13.3735600  11.9680760
  53.1518390  12.1177980  16.3976350  52.5520380  12.1770540  15.6540270
  53.2812290  11.1782960  16.5273200  53.8476300   6.6043280   4.2380260
  54.6095210   7.1739930   4.3439950  53.8630670   6.0370480   5.0088570
  37.3480640   5.1281210   8.4687920  36.6929480   4.8592850   7.8247620
  38.1858590   5.0185690   8.0189900  54.8536270   7.4593380   9.0822190
  55.2245100   6.6760700   8.6758160  55.4938200   8.1482480   8.9039490
  51.8370030   8.8429960  14.4952510  51.0229870   9.2727120  14.7578300
  52.2444230   9.4548370  13.8821560  53.7960810   4.8346640   6.3882210
  53.4204410   4.0674570   5.9563500  53.0663930   5.2169340   6.8757140
  38.3856570   5.5133780  13.0091260  38.7529610   5.4261180  13.8887280
  37.8167390   4.7500330  12.9098120  53.1860430   3.9818160  16.0221730
  52.9546520   3.7530910  15.1219680  53.4464980   4.9017710  15.9766620
  37.9372570   2.4242870  16.9149680  37.0428620   2.3909630  17.2543390
  38.4770120   2.6229660  17.6800930  36.5618720   2.3380140   4.4113250
  35.6582800   2.6010340   4.2364910  37.0459340   2.6091310   3.6313210
  53.0711770   3.0604130   9.6889450  53.5949250   2.5666780   9.0579620
  53.6571190   3.1954490  10.4337020  53.2501490   3.1444000  13.2109000
  52.3004200   3.1107540  13.3253990  53.4314500   4.0544110  12.9758770
  52.5611740   2.3177480   5.6281860  53.0570860   2.0848350   6.4130740
  52.3627810   1.4789320   5.2119500  51.8946080  13.5948560   8.0220780
  52.4905150  13.2733130   7.3455200  52.1524230  13.1220380   8.8134050
  39.8008650  10.0266470  18.1711410  39.7578280   9.6559380  19.0525870
  39.9319660  10.9644040  18.3113230  43.5014680  11.5826060  13.7721130
  43.2606040  11.8500620  12.8851650  44.4417320  11.7531790  13.8271990
  54.7618840  13.6020440  14.5731770  54.2677120  13.9989310  13.8558900
  54.1532130  12.9769650  14.9669050  39.6396680  12.9728720  15.2909190
  39.0457000  12.8413420  16.0299230  39.6320520  12.1366860  14.8251290
  52.4458290  14.2443860  11.8518510  51.9861260  14.9959670  11.4776530
  51.8170750  13.5250330  11.7933310  39.2708910  10.3387100  14.2417230
  38.5442970   9.7192390  14.1743180  39.3318060  10.7327710  13.3715310
  42.8754010  12.5532100  11.0266640  43.3919030  11.9419460  10.5014900
  43.5251390  13.0560880  11.5177650  45.6149510  13.4440590  11.8535620
  45.9027320  13.1894890  10.9768630  46.1272730  12.8917950  12.4441190
  37.5538910  13.6561490   7.4513990  37.3860950  13.0232170   8.1495880
  36.6873420  13.8620890   7.1008180  39.1601610  12.3494720   4.8964130
  38.6349230  12.7302750   4.1926090  39.0846190  12.9745490   5.6173840
  45.6821870  14.3656690  19.2203820  46.6089180  14.1300960  19.2639780
  45.6672300  15.1928690  18.7389850  53.9166930  13.9082260   6.2178070
  54.0919120  13.2220000   5.5738990  53.2188500  14.4329310   5.8254740
  41.7594580  14.2977100   3.7713380  42.4913400  14.0136380   3.2237270
  42.0188250  14.0590380   4.6612760  40.9209370  10.4141830   3.7759710
  40.2918250  10.8826930   4.3245540  41.0357200   9.5691050   4.2105900
  52.2499430  13.5926550  19.0444860  53.0424750  13.0975780  18.8370820
  52.5432580  14.2716690  19.6520470  29.6015600  79.5621450  83.7978360
  29.5209650  78.6476060  83.5270070  29.1880020  80.0588520  83.0918070
  27.7333640  81.3400470  85.6787630  26.9575740  80.8600910  85.9686200
  28.3846570  80.6606120  85.5043790  21.7499470  81.6520280  86.5563390
  20.9184350  81.3968990  86.9559900  22.3580450  81.7231050  87.2921310
  20.1591420  76.6122170  80.3405780  19.2708120  76.9538140  80.2385660
  20.4432610  76.4122490  79.4486610  18.1224430  79.2127820  86.2245480
  18.6940540  78.4450020  86.2249120  18.1225970  79.5116580  85.3152090
  27.1742630  84.0157660  85.6857790  27.1050910  83.0747600  85.5246920
  27.9362490  84.1059070  86.2580360  19.3649300  74.6212180  88.0114410
  19.1852140  73.7237930  88.2917170  18.9629380  75.1684050  88.6861360
  28.2047800  76.8228040  85.9126720  28.5812620  75.9499920  85.8000390
  28.1067310  77.1586740  85.0217160  22.3352810  75.1953670  81.3744160
  22.4419560  76.0957400  81.6812920  21.4245170  75.1471640  81.0838810
  31.9871920  74.3178480  82.8455060  32.8081540  73.8275050  82.8880540
  32.0206000  74.9076140  83.5986900  19.9835970  77.1172680  86.6196750
  20.6646080  77.3811050  87.2384150  19.6684020  76.2773550  86.9534760
  24.1760540  78.1640040  85.7069340  24.6838760  78.6621010  86.3474360
  24.7073780  77.3875240  85.5308700  36.2771470  76.3345230  89.4098690
  35.5723640  76.7226940  88.8913800  36.5429390  77.0295520  90.0119620
  22.4596640  72.8038600  89.9732760  22.4615080  73.3210990  89.1678660
  21.6300950  72.3268780  89.9502690  28.8467730  82.9157910  81.4722660
  28.2285000  83.3807360  80.9085380  29.3590980  83.6085390  81.8892170
  23.7099490  82.4433780  88.1506260  23.3768870  83.0702700  88.7927330
  23.8866170  82.9695660  87.3707930  32.2233400  76.2578860  85.6182600
  31.5188970  76.5463750  86.1985710  32.5845560  77.0678970  85.2582160
  22.1411970  74.5148560  87.9803210  22.4828780  75.3590610  87.6857080
  21.2027780  74.6632300  88.0968550  35.2920320  75.7033650  86.0091810
  34.3445230  75.7372630  86.1407240  35.6170310  76.5172600  86.3941170
  25.8239860  72.0030830  84.3047800  26.1314840  71.4477720  83.5883300
  24.8940560  72.1375290  84.1220790  30.7740360  82.6227960  87.9237870
  31.1909150  82.4088070  87.0891330  31.4980180  82.8800750  88.4946490
  28.2120620  80.0679660  81.0407920  27.2849900  80.0017040  81.2696390
  28.3645440  81.0059790  80.9263160  28.1989700  76.3396660  78.0375080
  27.2593370  76.5010620  78.1227540  28.5172960  77.0582340  77.4911070
  34.7202460  81.0215180  88.0154110  33.8921090  81.0908270  87.5404240
  35.3152940  81.6069490  87.5469940  32.2417910  81.6299960  81.5443170
  31.6230330  81.2919510  80.8969470  32.2242360  80.9859720  82.2522360
  31.6844470  77.8084500  88.9608980  31.2715650  78.6338210  89.2148970
  30.9520420  77.2229540  88.7685340  23.8177260  80.5944400  83.8227650
  23.4134260  79.8821650  83.3273550  23.9040380  80.2497640  84.7115690
  22.5305880  77.3687610  87.6026690  23.0820470  77.4782950  86.8279940
  23.0449390  77.7425210  88.3181920  30.4182610  80.8686770  78.5515920
  30.8575890  80.0309200  78.4053740  31.1311030  81.5016170  78.6380060
  22.2048610  80.8906970  91.2132030  22.0656380  81.7629770  91.5819430
  21.3229970  80.5479780  91.0679970  33.9999750  72.1229580  76.8656960
  33.6872410  72.2156410  77.7656030  34.7612220  72.7010610  76.8154390
  20.5181890  79.4889380  81.3234300  20.3979490  80.2151470  80.7115570
  20.2082780  78.7192290  80.8462210  18.1567260  82.6604520  87.1302940
  18.2347680  82.7953290  86.1858660  18.7708940  81.9520410  87.3231060
  35.2101040  76.8601080  92.8431100  34.5945310  77.3680750  92.3146560
  34.8897460  75.9599410  92.7857040  18.2126780  83.7018690  89.6697400
  18.3757820  83.2324050  88.8516770  18.6779230  83.1942250  90.3346240
  22.9845550  72.8324450  84.7057970  22.5413700  73.6133990  84.3742490
  23.5430540  73.1554340  85.4128910  27.2715360  75.6992970  90.3093290
  26.8094730  75.9075990  91.1213230  26.8693470  74.8852320  90.0063960
  32.2719870  76.9201920  91.4389950  31.4213460  76.6207670  91.7599020
  32.1121660  77.1643930  90.5273770  29.3669580  78.4203670  93.5388740
  29.6922990  77.5867420  93.1990970  30.1549910  78.9432190  93.6867070
  26.1004370  72.4535150  79.5863800  25.4758550  72.4495020  80.3117110
  26.0134490  71.5866110  79.1899770  25.0221450  73.3771780  86.5647570
  25.3193780  74.2834610  86.4839590  25.5707010  72.8890560  85.9507140
  22.7759770  77.9558020  82.4339220  22.5500690  77.7395190  83.3385840
  21.9952300  78.3886480  82.0885190  30.0057530  77.9621390  81.0329870
  29.4066420  78.6857190  80.8493490  30.5537140  77.8998170  80.2506320
  25.2158980  78.8543600  93.0999490  25.1202580  77.9138330  92.9499890
  26.0590960  79.0758670  92.7047560  28.6122400  76.5984930  83.0633150
  29.0051970  76.9157130  82.2501840  28.9739250  75.7196810  83.1777670
  20.3469520  75.2657270  91.2533270  19.9532910  76.1132480  91.4606050
  19.6587920  74.6283640  91.4441910  17.6486570  73.1885730  85.2863350
  17.3599620  73.7588590  85.9988330  18.3932330  72.7090180  85.6494580
  17.8356800  77.1305850  76.4966070  17.7531470  78.0736610  76.6381060
  17.4839860  76.9880760  75.6178420  29.1977540  79.1890680  87.1583930
  28.4658660  79.6977490  87.5074030  28.8001880  78.3720660  86.8572710
  25.6354930  75.8644880  85.5636420  25.6390990  75.4234830  84.7140960
  26.5306050  76.1862210  85.6708240  21.4857310  75.7471370  84.5230630
  21.1457360  76.2246600  85.2797680  20.7234630  75.2936490  84.1631730
  25.6975080  76.8656960  78.5543180  25.8187900  76.8243440  79.5029000
  25.3123590  77.7281110  78.3989910  29.6603450  74.6424360  86.5706870
  29.6776190  75.0933010  87.4148720  29.4119030  73.7430000  86.7840310
  24.7096580  79.1758100  77.9526480  24.1413480  78.7276350  77.3262390
  25.4185580  79.5350880  77.4191630  33.0874200  72.0556540  92.4093250
  33.4119970  71.3246200  92.9351230  33.1230710  71.7370180  91.5074240
  19.7865760  83.0770120  91.8293210  19.4020550  82.4363790  92.4276170
  20.0977950  83.7806240  92.3987940  25.9362900  79.9246660  87.3101830
  26.3033030  79.4505230  88.0563170  25.7467960  80.7988230  87.6510170
  18.8003390  74.6690350  83.4395300  18.5150310  74.3046020  84.2773920
  18.7382250  73.9370810  82.8258440  23.7262270  78.9655300  89.6286040
  23.4219340  79.8447280  89.8536400  24.6808730  79.0255090  89.6643480
  22.2544060  83.1716290  80.2252890  21.4806320  82.6313910  80.0651610
  22.9838690  82.6522900  79.8870650  33.0132040  82.1681650  86.0179280
  33.7331160  82.6636940  85.6275390  32.8113860  81.4899540  85.3733150
  28.4741980  73.5619610  80.1608670  27.6606590  73.0632780  80.0853980
  28.2803930  74.4017860  79.7445020  28.3950840  82.2390710  91.9048280
  28.3288150  81.3186380  91.6505870  27.7655980  82.3366150  92.6192920
  31.1890370  77.9339260  78.4570830  32.0769990  78.2456490  78.2822170
  31.1595460  77.0611510  78.0651410  22.2981460  82.8396670  83.8631700
  22.8160130  82.0364930  83.8088590  21.8465480  82.7775810  84.7048530
  19.7826000  79.8058040  90.7757400  19.4240940  80.4711890  91.3630740
  19.4880560  78.9741590  91.1470020  22.9839120  80.2642280  93.6596950
  22.6839260  80.4099460  92.7624770  23.7550360  79.7047570  93.5670340
  33.4604640  79.2451100  77.9250690  33.3768360  79.6765320  77.0747130
  34.1798830  79.7049450  78.3577510  34.5378780  81.7018620  91.0020660
  33.8126970  82.2947400  90.8050050  35.0654240  81.6942160  90.2034030
  30.0678370  83.4278790  84.5004510  30.4202190  82.8306920  83.8405880
  29.1840700  83.1023020  84.6712760  18.2934050  79.8049300  77.3992000
  19.1628900  80.0874100  77.6827920  17.8024370  80.6185170  77.2840810
  25.4568860  81.1922510  81.5200280  25.9131640  82.0027760  81.7460470
  25.1057070  80.8745650  82.3518770  21.3580640  71.5360160  81.9922800
  21.2295270  71.5278060  82.9407720  20.5342660  71.8743250  81.6413810
  18.3574570  73.2951280  91.4529500  17.6433090  73.4948200  92.0582110
  18.7769610  72.5190850  91.8244300  32.4605520  82.9081760  78.8523330
  32.1727220  83.3694450  79.6401210  33.2557690  82.4479530  79.1207550
  20.2780560  81.6222770  79.5274060  19.6708510  82.3621670  79.5369360
  20.7529910  81.7122130  78.7012260  29.8513350  75.7873590  89.2030950
  30.2194170  74.9668800  89.5310520  28.9911550  75.8475480  89.6186600
  33.2175380  74.7430530  80.0118510  32.5888540  74.8476200  79.2976740
  32.7227300  74.9627310  80.8012390  25.1859410  77.0216480  81.4276390
  24.4775560  77.4902820  81.8690000  25.4703890  76.3638490  82.0621580
  26.8115340  78.4413180  89.4268920  27.3100590  78.9159000  90.0920770
  26.9538290  77.5176700  89.6338950  29.2174840  73.7467140  82.8672180
  29.0942620  73.7653270  81.9181690  30.1659400  73.7946080  82.9870580
  23.3894430  75.3301560  78.8027100  24.2384960  75.7671710  78.7367290
  23.0225700  75.6421820  79.6299160  34.0182200  74.6581140  90.2697310
  33.5155800  75.3986540  90.6091120  34.8338860  75.0465140  89.9534100
  32.3104210  79.9014320  83.7158670  31.3694350  79.9164550  83.8906360
  32.6248280  79.1150280  84.1618970  22.2885850  81.5833920  77.2762630
  23.0549120  81.4715280  77.8388060  22.3660540  80.8871890  76.6239400
  20.9832610  79.0158990  77.9595520  21.0636200  78.0686500  78.0712920
  21.8752360  79.3465870  78.0656180  18.5103410  80.8373910  93.1951690
  19.0142430  80.2581190  93.7667920  17.7710830  81.1214140  93.7328060
  25.4127030  83.5588100  76.7497980  25.3077670  82.9440450  77.4759360
  25.2451250  83.0353990  75.9660990  25.5641350  82.2444900  92.7287210
  24.7987020  82.8129900  92.6441880  25.7457310  81.9521110  91.8355440
  28.6529760  82.6208130  77.3539970  28.1039860  83.0677430  77.9982710
  29.2749020  82.1157380  77.8777640  24.3204880  81.5799050  79.2505270
  24.7421300  81.4138920  80.0936660  24.4455720  80.7699280  78.7560410
  22.4832300  77.5595600  92.0576250  21.9528760  77.0686550  91.4299590
  23.1520370  77.9879800  91.5234180  26.8332520  80.6036660  76.4982370
  27.3538180  79.8885680  76.1323520  27.4800920  81.2422530  76.7982880
  31.3810360  82.0265060  91.8217440  31.7951380  82.1810140  92.6707860
  30.4461360  82.1520280  91.9843220  31.8532530  79.3661220  93.8256590
  32.4353300  78.6113540  93.7377070  32.0294300  79.8968660  93.0488070
  22.9704600  74.5257970  92.1373540  22.8761470  73.9078720  91.4124410
  22.3901990  75.2524260  91.9103450  25.7366040  73.0831210  89.1700930
  25.2883340  73.1055470  88.3246480  25.1031240  72.6850230  89.7671230
  26.1425590  81.9785540  89.7913370  26.5613700  82.8218270  89.6189610
  25.2234220  82.1157580  89.5620150  28.4789490  79.7101720  91.1751210
  28.5985700  79.1142860  91.9146050  29.3383490  79.7471410  90.7552510
  30.8177390  80.2638910  89.7513720  30.2912610  80.7881530  89.1478860
  31.1608730  80.8966300  90.3823450  23.2163780  77.6532280  76.1963430
  23.0152840  76.7899640  76.5576770  23.0455830  77.5665640  75.2585030
  25.2458260  76.2523070  92.4327030  25.8357950  75.9438920  93.1204850
  24.4278500  75.7802820  92.5886930  30.0651690  75.8688880  92.6660050
  29.3767210  75.2070420  92.6010040  30.7857710  75.4227150  93.1108510
  30.6952090  72.4640510  78.7250310  30.9754380  71.6208410  79.0809730
  29.9217820  72.6963620  79.2389060  22.0146580  74.7532900  76.1841310
  22.3172480  74.7600330  75.2760460  22.7541170  74.4030760  76.6808970
  25.2331510  73.6967520  77.1697510  24.8853510  73.0191510  76.5899960
  25.4344280  73.2357030  77.9840900  35.0732810  81.7017240  79.3354220
  35.8351720  82.2713890  79.4413910  35.0887180  81.1344440  80.1062530
  18.5737150  80.2255170  83.5661880  17.9185990  79.9566810  82.9221580
  19.4115100  80.1159650  83.1163860  36.0792780  82.5567340  84.1796150
  36.4501610  81.7734660  83.7732120  36.7194710  83.2456440  84.0013450
  35.1251980  81.9951610  76.4926740  35.4000820  82.9030490  76.3645960
  34.9362720  81.9314140  77.4288730  31.5227590  75.0196460  77.7880370
  31.9412470  74.8327440  76.9477030  31.2163650  74.1675510  78.0983300
  35.0217320  79.9320600  81.4856170  34.6460920  79.1648530  81.0537460
  34.2920440  80.3143300  81.9731100  19.6113080  80.6107740  88.1065220
  19.9786120  80.5235140  88.9861240  19.0423900  79.8474290  88.0072080
  34.4116940  79.0792120  91.1195690  34.1803030  78.8504870  90.2193640
  34.6721490  79.9991670  91.0740580  19.1629080  77.5216830  92.0123640
  18.2685130  77.4883590  92.3517350  19.7026630  77.7203620  92.7774890
  17.7875230  77.4354100  79.5087210  16.8839310  77.6984300  79.3338870
  18.2715850  77.7065270  78.7287170  34.2968280  78.1578090  84.7863410
  34.8205760  77.6640740  84.1553580  34.8827700  78.2928450  85.5310980
  34.4758000  78.2417960  88.3082960  33.5260710  78.2081500  88.4227950
  34.6571010  79.1518070  88.0732730  20.3302440  76.4919640  77.4181590
  21.0394140  76.0702860  76.9328870  19.6142380  76.5594870  76.7864940
  19.9776600  72.5458970  76.4584240  20.7004730  73.0867910  76.7765460
  20.2501120  72.2722390  75.5825780  33.7868250  77.4151440  80.7255820
  34.2827370  77.1822310  81.5104700  33.5884320  76.5763280  80.3093460
  19.6668790  71.7965160  86.3606860  20.3144980  71.2462540  85.9202020
  20.0870630  72.0508310  87.1822670  35.2155410  76.0512390  83.2593500
  35.1054690  75.8968430  84.1975770  35.9763000  75.5233330  83.0168910
  33.5621130  71.9906520  89.7176500  34.1993350  72.6040660  90.0835690
  33.7096020  72.0267180  88.7725730  36.1045680  73.8820310  76.4999640
  37.0294990  73.7501490  76.2917930  36.0821470  73.9613130  77.4536090
  36.1784170  74.6530970  79.1256350  35.3835670  74.5876090  79.6549260
  36.3827450  75.5881610  79.1141700  19.4200790  71.9520830  89.1032180
  19.0715610  72.4084650  89.8690360  19.0888490  71.0577960  89.1854610
  26.9325610  73.1432710  92.6251600  26.8714500  73.7354540  93.3747010
  27.8725990  73.0358670  92.4801860  29.5700170  72.8002770  92.2643890
  30.1840580  73.1182060  91.6024970  30.1149730  72.3151360  92.8839750
  20.0921430  71.4797030  92.3782950  20.6404420  71.2985080  91.6149060
  20.1576740  70.6891140  92.9139260  30.3108210  71.3634910  88.5913180
  29.4368050  71.6970020  88.3886110  30.2018960  70.8908090  89.4165050
  31.2180190  73.5705780  89.9754900  30.8893550  72.7557540  89.5956630
  32.1662490  73.5275590  89.8520590  28.0583030  72.2804750  87.5306090
  27.2754820  72.7550250  87.8102850  27.7645960  71.3759580  87.4219270
  32.6104100  72.9827850  85.5755180  33.0512190  72.9272950  84.7276780
  32.3411690  73.8985860  85.6465360  34.4742670  72.6143090  83.5864000
  34.4131070  71.6704310  83.4395020  35.2534700  72.7223180  84.1317460
  19.4023440  72.5852230  80.0519810  20.1602800  72.6981110  79.4783840
  18.9400610  73.4221430  80.0063240  25.9437250  74.6991500  83.0422120
  25.1311760  74.3248390  82.7018000  26.4478890  73.9436580  83.3443310
  30.4462230  71.3633950  84.2805190  31.0491600  71.9354160  84.7553710
  29.7055220  71.9273390  84.0579090  33.5896830  71.7655510  79.5545470
  33.7847460  72.6638960  79.8212900  32.8026700  71.5342590  80.0478420
  21.7748590  73.1116280  78.5921780  22.3041350  72.3246080  78.4629730
  22.4076910  73.7907470  78.8257310  23.9686430  72.8491420  81.6467170
  23.3389170  72.1478730  81.8137300  23.4291570  73.6095550  81.4300330
  29.6015600  79.5621450  65.0234870  29.5209650  78.6476060  64.7526580
  29.1880020  80.0588520  64.3174580  27.7333640  81.3400470  66.9044140
  26.9575740  80.8600910  67.1942710  28.3846570  80.6606120  66.7300300
  21.7499470  81.6520280  67.7819900  20.9184350  81.3968990  68.1816410
  22.3580450  81.7231050  68.5177820  20.1591420  76.6122170  61.5662290
  19.2708120  76.9538140  61.4642170  20.4432610  76.4122490  60.6743120
  18.1224430  79.2127820  67.4501990  18.6940540  78.4450020  67.4505630
  18.1225970  79.5116580  66.5408600  27.1742630  84.0157660  66.9114300
  27.1050910  83.0747600  66.7503430  27.9362490  84.1059070  67.4836870
  19.3649300  74.6212180  69.2370920  19.1852140  73.7237930  69.5173680
  18.9629380  75.1684050  69.9117870  28.2047800  76.8228040  67.1383230
  28.5812620  75.9499920  67.0256900  28.1067310  77.1586740  66.2473670
  22.3352810  75.1953670  62.6000670  22.4419560  76.0957400  62.9069430
  21.4245170  75.1471640  62.3095320  31.9871920  74.3178480  64.0711570
  32.8081540  73.8275050  64.1137050  32.0206000  74.9076140  64.8243410
  19.9835970  77.1172680  67.8453260  20.6646080  77.3811050  68.4640660
  19.6684020  76.2773550  68.1791270  24.1760540  78.1640040  66.9325850
  24.6838760  78.6621010  67.5730870  24.7073780  77.3875240  66.7565210
  36.2771470  76.3345230  70.6355200  35.5723640  76.7226940  70.1170310
  36.5429390  77.0295520  71.2376130  22.4596640  72.8038600  71.1989270
  22.4615080  73.3210990  70.3935170  21.6300950  72.3268780  71.1759200
  28.8467730  82.9157910  62.6979170  28.2285000  83.3807360  62.1341890
  29.3590980  83.6085390  63.1148680  23.7099490  82.4433780  69.3762770
  23.3768870  83.0702700  70.0183840  23.8866170  82.9695660  68.5964440
  32.2233400  76.2578860  66.8439110  31.5188970  76.5463750  67.4242220
  32.5845560  77.0678970  66.4838670  22.1411970  74.5148560  69.2059720
  22.4828780  75.3590610  68.9113590  21.2027780  74.6632300  69.3225060
  35.2920320  75.7033650  67.2348320  34.3445230  75.7372630  67.3663750
  35.6170310  76.5172600  67.6197680  25.8239860  72.0030830  65.5304310
  26.1314840  71.4477720  64.8139810  24.8940560  72.1375290  65.3477300
  30.7740360  82.6227960  69.1494380  31.1909150  82.4088070  68.3147840
  31.4980180  82.8800750  69.7203000  28.2120620  80.0679660  62.2664430
  27.2849900  80.0017040  62.4952900  28.3645440  81.0059790  62.1519670
  28.1989700  76.3396660  59.2631590  27.2593370  76.5010620  59.3484050
  28.5172960  77.0582340  58.7167580  34.7202460  81.0215180  69.2410620
  33.8921090  81.0908270  68.7660750  35.3152940  81.6069490  68.7726450
  32.2417910  81.6299960  62.7699680  31.6230330  81.2919510  62.1225980
  32.2242360  80.9859720  63.4778870  31.6844470  77.8084500  70.1865490
  31.2715650  78.6338210  70.4405480  30.9520420  77.2229540  69.9941850
  23.8177260  80.5944400  65.0484160  23.4134260  79.8821650  64.5530060
  23.9040380  80.2497640  65.9372200  22.5305880  77.3687610  68.8283200
  23.0820470  77.4782950  68.0536450  23.0449390  77.7425210  69.5438430
  30.4182610  80.8686770  59.7772430  30.8575890  80.0309200  59.6310250
  31.1311030  81.5016170  59.8636570  22.2048610  80.8906970  72.4388540
  22.0656380  81.7629770  72.8075940  21.3229970  80.5479780  72.2936480
  33.9999750  72.1229580  58.0913470  33.6872410  72.2156410  58.9912540
  34.7612220  72.7010610  58.0410900  20.5181890  79.4889380  62.5490810
  20.3979490  80.2151470  61.9372080  20.2082780  78.7192290  62.0718720
  18.1567260  82.6604520  68.3559450  18.2347680  82.7953290  67.4115170
  18.7708940  81.9520410  68.5487570  35.2101040  76.8601080  74.0687610
  34.5945310  77.3680750  73.5403070  34.8897460  75.9599410  74.0113550
  18.2126780  83.7018690  70.8953910  18.3757820  83.2324050  70.0773280
  18.6779230  83.1942250  71.5602750  22.9845550  72.8324450  65.9314480
  22.5413700  73.6133990  65.5999000  23.5430540  73.1554340  66.6385420
  27.2715360  75.6992970  71.5349800  26.8094730  75.9075990  72.3469740
  26.8693470  74.8852320  71.2320470  32.2719870  76.9201920  72.6646460
  31.4213460  76.6207670  72.9855530  32.1121660  77.1643930  71.7530280
  29.3669580  78.4203670  74.7645250  29.6922990  77.5867420  74.4247480
  30.1549910  78.9432190  74.9123580  26.1004370  72.4535150  60.8120310
  25.4758550  72.4495020  61.5373620  26.0134490  71.5866110  60.4156280
  25.0221450  73.3771780  67.7904080  25.3193780  74.2834610  67.7096100
  25.5707010  72.8890560  67.1763650  22.7759770  77.9558020  63.6595730
  22.5500690  77.7395190  64.5642350  21.9952300  78.3886480  63.3141700
  30.0057530  77.9621390  62.2586380  29.4066420  78.6857190  62.0750000
  30.5537140  77.8998170  61.4762830  25.2158980  78.8543600  74.3256000
  25.1202580  77.9138330  74.1756400  26.0590960  79.0758670  73.9304070
  28.6122400  76.5984930  64.2889660  29.0051970  76.9157130  63.4758350
  28.9739250  75.7196810  64.4034180  20.3469520  75.2657270  72.4789780
  19.9532910  76.1132480  72.6862560  19.6587920  74.6283640  72.6698420
  26.9214570  75.3492240  75.5486520  26.2312890  75.1564440  76.1832610
  27.6646870  75.6326880  76.0810820  17.6486570  73.1885730  66.5119860
  17.3599620  73.7588590  67.2244840  18.3932330  72.7090180  66.8751090
  17.8356800  77.1305850  57.7222580  17.7531470  78.0736610  57.8637570
  17.4839860  76.9880760  56.8434930  29.1977540  79.1890680  68.3840440
  28.4658660  79.6977490  68.7330540  28.8001880  78.3720660  68.0829220
  25.6354930  75.8644880  66.7892930  25.6390990  75.4234830  65.9397470
  26.5306050  76.1862210  66.8964750  21.4857310  75.7471370  65.7487140
  21.1457360  76.2246600  66.5054190  20.7234630  75.2936490  65.3888240
  25.6975080  76.8656960  59.7799690  25.8187900  76.8243440  60.7285510
  25.3123590  77.7281110  59.6246420  29.6603450  74.6424360  67.7963380
  29.6776190  75.0933010  68.6405230  29.4119030  73.7430000  68.0096820
  24.7096580  79.1758100  59.1782990  24.1413480  78.7276350  58.5518900
  25.4185580  79.5350880  58.6448140  33.0874200  72.0556540  73.6349760
  33.4119970  71.3246200  74.1607740  33.1230710  71.7370180  72.7330750
  19.7865760  83.0770120  73.0549720  19.4020550  82.4363790  73.6532680
  20.0977950  83.7806240  73.6244450  25.9362900  79.9246660  68.5358340
  26.3033030  79.4505230  69.2819680  25.7467960  80.7988230  68.8766680
  18.8003390  74.6690350  64.6651810  18.5150310  74.3046020  65.5030430
  18.7382250  73.9370810  64.0514950  23.7262270  78.9655300  70.8542550
  23.4219340  79.8447280  71.0792910  24.6808730  79.0255090  70.8899990
  22.2544060  83.1716290  61.4509400  21.4806320  82.6313910  61.2908120
  22.9838690  82.6522900  61.1127160  33.0132040  82.1681650  67.2435790
  33.7331160  82.6636940  66.8531900  32.8113860  81.4899540  66.5989660
  28.4741980  73.5619610  61.3865180  27.6606590  73.0632780  61.3110490
  28.2803930  74.4017860  60.9701530  28.3950840  82.2390710  73.1304790
  28.3288150  81.3186380  72.8762380  27.7655980  82.3366150  73.8449430
  31.1890370  77.9339260  59.6827340  32.0769990  78.2456490  59.5078680
  31.1595460  77.0611510  59.2907920  22.2981460  82.8396670  65.0888210
  22.8160130  82.0364930  65.0345100  21.8465480  82.7775810  65.9305040
  19.7826000  79.8058040  72.0013910  19.4240940  80.4711890  72.5887250
  19.4880560  78.9741590  72.3726530  22.9839120  80.2642280  74.8853460
  22.6839260  80.4099460  73.9881280  23.7550360  79.7047570  74.7926850
  33.4604640  79.2451100  59.1507200  33.3768360  79.6765320  58.3003640
  34.1798830  79.7049450  59.5834020  34.5378780  81.7018620  72.2277170
  33.8126970  82.2947400  72.0306560  35.0654240  81.6942160  71.4290540
  30.0678370  83.4278790  65.7261020  30.4202190  82.8306920  65.0662390
  29.1840700  83.1023020  65.8969270  18.2934050  79.8049300  58.6248510
  19.1628900  80.0874100  58.9084430  17.8024370  80.6185170  58.5097320
  25.4568860  81.1922510  62.7456790  25.9131640  82.0027760  62.9716980
  25.1057070  80.8745650  63.5775280  21.3580640  71.5360160  63.2179310
  21.2295270  71.5278060  64.1664230  20.5342660  71.8743250  62.8670320
  18.3574570  73.2951280  72.6786010  17.6433090  73.4948200  73.2838620
  18.7769610  72.5190850  73.0500810  32.4605520  82.9081760  60.0779840
  32.1727220  83.3694450  60.8657720  33.2557690  82.4479530  60.3464060
  20.2780560  81.6222770  60.7530570  19.6708510  82.3621670  60.7625870
  20.7529910  81.7122130  59.9268770  29.8513350  75.7873590  70.4287460
  30.2194170  74.9668800  70.7567030  28.9911550  75.8475480  70.8443110
  33.2175380  74.7430530  61.2375020  32.5888540  74.8476200  60.5233250
  32.7227300  74.9627310  62.0268900  25.1859410  77.0216480  62.6532900
  24.4775560  77.4902820  63.0946510  25.4703890  76.3638490  63.2878090
  26.8115340  78.4413180  70.6525430  27.3100590  78.9159000  71.3177280
  26.9538290  77.5176700  70.8595460  29.2174840  73.7467140  64.0928690
  29.0942620  73.7653270  63.1438200  30.1659400  73.7946080  64.2127090
  23.3894430  75.3301560  60.0283610  24.2384960  75.7671710  59.9623800
  23.0225700  75.6421820  60.8555670  34.0182200  74.6581140  71.4953820
  33.5155800  75.3986540  71.8347630  34.8338860  75.0465140  71.1790610
  32.3104210  79.9014320  64.9415180  31.3694350  79.9164550  65.1162870
  32.6248280  79.1150280  65.3875480  22.2885850  81.5833920  58.5019140
  23.0549120  81.4715280  59.0644570  22.3660540  80.8871890  57.8495910
  20.9832610  79.0158990  59.1852030  21.0636200  78.0686500  59.2969430
  21.8752360  79.3465870  59.2912690  18.5103410  80.8373910  74.4208200
  19.0142430  80.2581190  74.9924430  17.7710830  81.1214140  74.9584570
  25.4127030  83.5588100  57.9754490  25.3077670  82.9440450  58.7015870
  25.2451250  83.0353990  57.1917500  25.5641350  82.2444900  73.9543720
  24.7987020  82.8129900  73.8698390  25.7457310  81.9521110  73.0611950
  28.6529760  82.6208130  58.5796480  28.1039860  83.0677430  59.2239220
  29.2749020  82.1157380  59.1034150  20.5426490  78.9803500  75.3158270
  20.5831830  78.6817370  76.2243500  21.3971990  79.3811110  75.1565790
  24.3204880  81.5799050  60.4761780  24.7421300  81.4138920  61.3193170
  24.4455720  80.7699280  59.9816920  22.4832300  77.5595600  73.2832760
  21.9528760  77.0686550  72.6556100  23.1520370  77.9879800  72.7490690
  26.8332520  80.6036660  57.7238880  27.3538180  79.8885680  57.3580030
  27.4800920  81.2422530  58.0239390  31.3810360  82.0265060  73.0473950
  31.7951380  82.1810140  73.8964370  30.4461360  82.1520280  73.2099730
  31.8532530  79.3661220  75.0513100  32.4353300  78.6113540  74.9633580
  32.0294300  79.8968660  74.2744580  22.9704600  74.5257970  73.3630050
  22.8761470  73.9078720  72.6380920  22.3901990  75.2524260  73.1359960
  25.7366040  73.0831210  70.3957440  25.2883340  73.1055470  69.5502990
  25.1031240  72.6850230  70.9927740  26.1425590  81.9785540  71.0169880
  26.5613700  82.8218270  70.8446120  25.2234220  82.1157580  70.7876660
  28.4789490  79.7101720  72.4007720  28.5985700  79.1142860  73.1402560
  29.3383490  79.7471410  71.9809020  30.8177390  80.2638910  70.9770230
  30.2912610  80.7881530  70.3735370  31.1608730  80.8966300  71.6079960
  23.2163780  77.6532280  57.4219940  23.0152840  76.7899640  57.7833280
  23.0455830  77.5665640  56.4841540  25.2458260  76.2523070  73.6583540
  25.8357950  75.9438920  74.3461360  24.4278500  75.7802820  73.8143440
  30.0651690  75.8688880  73.8916560  29.3767210  75.2070420  73.8266550
  30.7857710  75.4227150  74.3365020  30.6952090  72.4640510  59.9506820
  30.9754380  71.6208410  60.3066240  29.9217820  72.6963620  60.4645570
  22.0146580  74.7532900  57.4097820  22.3172480  74.7600330  56.5016970
  22.7541170  74.4030760  57.9065480  25.2331510  73.6967520  58.3954020
  24.8853510  73.0191510  57.8156470  25.4344280  73.2357030  59.2097410
  35.0732810  81.7017240  60.5610730  35.8351720  82.2713890  60.6670420
  35.0887180  81.1344440  61.3319040  18.5737150  80.2255170  64.7918390
  17.9185990  79.9566810  64.1478090  19.4115100  80.1159650  64.3420370
  36.0792780  82.5567340  65.4052660  36.4501610  81.7734660  64.9988630
  36.7194710  83.2456440  65.2269960  35.1251980  81.9951610  57.7183250
  35.4000820  82.9030490  57.5902470  34.9362720  81.9314140  58.6545240
  31.5227590  75.0196460  59.0136880  31.9412470  74.8327440  58.1733540
  31.2163650  74.1675510  59.3239810  35.0217320  79.9320600  62.7112680
  34.6460920  79.1648530  62.2793970  34.2920440  80.3143300  63.1987610
  19.6113080  80.6107740  69.3321730  19.9786120  80.5235140  70.2117750
  19.0423900  79.8474290  69.2328590  34.4116940  79.0792120  72.3452200
  34.1803030  78.8504870  71.4450150  34.6721490  79.9991670  72.2997090
  19.1629080  77.5216830  73.2380150  18.2685130  77.4883590  73.5773860
  19.7026630  77.7203620  74.0031400  32.8505010  74.3048550  75.1231900
  33.7275190  74.3131950  75.5065900  32.8625850  73.5679390  74.5124250
  17.7875230  77.4354100  60.7343720  16.8839310  77.6984300  60.5595380
  18.2715850  77.7065270  59.9543680  34.2968280  78.1578090  66.0119920
  34.8205760  77.6640740  65.3810090  34.8827700  78.2928450  66.7567490
  34.4758000  78.2417960  69.5339470  33.5260710  78.2081500  69.6484460
  34.6571010  79.1518070  69.2989240  20.3302440  76.4919640  58.6438100
  21.0394140  76.0702860  58.1585380  19.6142380  76.5594870  58.0121450
  19.9776600  72.5458970  57.6840750  20.7004730  73.0867910  58.0021970
  20.2501120  72.2722390  56.8082290  33.7868250  77.4151440  61.9512330
  34.2827370  77.1822310  62.7361210  33.5884320  76.5763280  61.5349970
  19.6668790  71.7965160  67.5863370  20.3144980  71.2462540  67.1458530
  20.0870630  72.0508310  68.4079180  35.2155410  76.0512390  64.4850010
  35.1054690  75.8968430  65.4232280  35.9763000  75.5233330  64.2425420
  33.5621130  71.9906520  70.9433010  34.1993350  72.6040660  71.3092200
  33.7096020  72.0267180  69.9982240  36.1045680  73.8820310  57.7256150
  37.0294990  73.7501490  57.5174440  36.0821470  73.9613130  58.6792600
  36.1784170  74.6530970  60.3512860  35.3835670  74.5876090  60.8805770
  36.3827450  75.5881610  60.3398210  19.4200790  71.9520830  70.3288690
  19.0715610  72.4084650  71.0946870  19.0888490  71.0577960  70.4111120
  26.9325610  73.1432710  73.8508110  26.8714500  73.7354540  74.6003520
  27.8725990  73.0358670  73.7058370  29.5700170  72.8002770  73.4900400
  30.1840580  73.1182060  72.8281480  30.1149730  72.3151360  74.1096260
  20.0921430  71.4797030  73.6039460  20.6404420  71.2985080  72.8405570
  20.1576740  70.6891140  74.1395770  30.3108210  71.3634910  69.8169690
  29.4368050  71.6970020  69.6142620  30.2018960  70.8908090  70.6421560
  31.2180190  73.5705780  71.2011410  30.8893550  72.7557540  70.8213140
  32.1662490  73.5275590  71.0777100  28.0583030  72.2804750  68.7562600
  27.2754820  72.7550250  69.0359360  27.7645960  71.3759580  68.6475780
  32.6104100  72.9827850  66.8011690  33.0512190  72.9272950  65.9533290
  32.3411690  73.8985860  66.8721870  34.4742670  72.6143090  64.8120510
  34.4131070  71.6704310  64.6651530  35.2534700  72.7223180  65.3573970
  19.4023440  72.5852230  61.2776320  20.1602800  72.6981110  60.7040350
  18.9400610  73.4221430  61.2319750  25.9437250  74.6991500  64.2678630
  25.1311760  74.3248390  63.9274510  26.4478890  73.9436580  64.5699820
  30.4462230  71.3633950  65.5061700  31.0491600  71.9354160  65.9810220
  29.7055220  71.9273390  65.2835600  33.5896830  71.7655510  60.7801980
  33.7847460  72.6638960  61.0469410  32.8026700  71.5342590  61.2734930
  21.7748590  73.1116280  59.8178290  22.3041350  72.3246080  59.6886240
  22.4076910  73.7907470  60.0513820  23.9686430  72.8491420  62.8723680
  23.3389170  72.1478730  63.0393810  23.4291570  73.6095550  62.6556840
  24.0941990  72.1275400  75.3076170  23.8126260  72.6309000  74.5436990
  24.4761690  71.3297150  74.9418300  30.6957450  71.5428980  75.8856640
  30.5822900  71.8623590  76.7808160  31.5127190  71.9441490  75.5893920
  29.6015600  79.5621450  46.2491380  29.5209650  78.6476060  45.9783090
  29.1880020  80.0588520  45.5431090  27.7333640  81.3400470  48.1300650
  26.9575740  80.8600910  48.4199220  28.3846570  80.6606120  47.9556810
  21.7499470  81.6520280  49.0076410  20.9184350  81.3968990  49.4072920
  22.3580450  81.7231050  49.7434330  20.1591420  76.6122170  42.7918800
  19.2708120  76.9538140  42.6898680  20.4432610  76.4122490  41.8999630
  18.1224430  79.2127820  48.6758500  18.6940540  78.4450020  48.6762140
  18.1225970  79.5116580  47.7665110  27.1742630  84.0157660  48.1370810
  27.1050910  83.0747600  47.9759940  27.9362490  84.1059070  48.7093380
  19.3649300  74.6212180  50.4627430  19.1852140  73.7237930  50.7430190
  18.9629380  75.1684050  51.1374380  28.2047800  76.8228040  48.3639740
  28.5812620  75.9499920  48.2513410  28.1067310  77.1586740  47.4730180
  22.3352810  75.1953670  43.8257180  22.4419560  76.0957400  44.1325940
  21.4245170  75.1471640  43.5351830  31.9871920  74.3178480  45.2968080
  32.8081540  73.8275050  45.3393560  32.0206000  74.9076140  46.0499920
  19.9835970  77.1172680  49.0709770  20.6646080  77.3811050  49.6897170
  19.6684020  76.2773550  49.4047780  24.1760540  78.1640040  48.1582360
  24.6838760  78.6621010  48.7987380  24.7073780  77.3875240  47.9821720
  36.2771470  76.3345230  51.8611710  35.5723640  76.7226940  51.3426820
  36.5429390  77.0295520  52.4632640  22.4596640  72.8038600  52.4245780
  22.4615080  73.3210990  51.6191680  21.6300950  72.3268780  52.4015710
  28.8467730  82.9157910  43.9235680  28.2285000  83.3807360  43.3598400
  29.3590980  83.6085390  44.3405190  23.7099490  82.4433780  50.6019280
  23.3768870  83.0702700  51.2440350  23.8866170  82.9695660  49.8220950
  32.2233400  76.2578860  48.0695620  31.5188970  76.5463750  48.6498730
  32.5845560  77.0678970  47.7095180  22.1411970  74.5148560  50.4316230
  22.4828780  75.3590610  50.1370100  21.2027780  74.6632300  50.5481570
  35.2920320  75.7033650  48.4604830  34.3445230  75.7372630  48.5920260
  35.6170310  76.5172600  48.8454190  25.8239860  72.0030830  46.7560820
  26.1314840  71.4477720  46.0396320  24.8940560  72.1375290  46.5733810
  30.7740360  82.6227960  50.3750890  31.1909150  82.4088070  49.5404350
  31.4980180  82.8800750  50.9459510  28.2120620  80.0679660  43.4920940
  27.2849900  80.0017040  43.7209410  28.3645440  81.0059790  43.3776180
  28.1989700  76.3396660  40.4888100  27.2593370  76.5010620  40.5740560
  28.5172960  77.0582340  39.9424090  34.7202460  81.0215180  50.4667130
  33.8921090  81.0908270  49.9917260  35.3152940  81.6069490  49.9982960
  32.2417910  81.6299960  43.9956190  31.6230330  81.2919510  43.3482490
  32.2242360  80.9859720  44.7035380  31.6844470  77.8084500  51.4122000
  31.2715650  78.6338210  51.6661990  30.9520420  77.2229540  51.2198360
  23.8177260  80.5944400  46.2740670  23.4134260  79.8821650  45.7786570
  23.9040380  80.2497640  47.1628710  22.5305880  77.3687610  50.0539710
  23.0820470  77.4782950  49.2792960  23.0449390  77.7425210  50.7694940
  30.4182610  80.8686770  41.0028940  30.8575890  80.0309200  40.8566760
  31.1311030  81.5016170  41.0893080  22.2048610  80.8906970  53.6645050
  22.0656380  81.7629770  54.0332450  21.3229970  80.5479780  53.5192990
  33.9999750  72.1229580  39.3169980  33.6872410  72.2156410  40.2169050
  34.7612220  72.7010610  39.2667410  20.5181890  79.4889380  43.7747320
  20.3979490  80.2151470  43.1628590  20.2082780  78.7192290  43.2975230
  18.1567260  82.6604520  49.5815960  18.2347680  82.7953290  48.6371680
  18.7708940  81.9520410  49.7744080  35.2101040  76.8601080  55.2944120
  34.5945310  77.3680750  54.7659580  34.8897460  75.9599410  55.2370060
  18.2126780  83.7018690  52.1210420  18.3757820  83.2324050  51.3029790
  18.6779230  83.1942250  52.7859260  22.9845550  72.8324450  47.1570990
  22.5413700  73.6133990  46.8255510  23.5430540  73.1554340  47.8641930
  27.2715360  75.6992970  52.7606310  26.8094730  75.9075990  53.5726250
  26.8693470  74.8852320  52.4576980  32.2719870  76.9201920  53.8902970
  31.4213460  76.6207670  54.2112040  32.1121660  77.1643930  52.9786790
  29.3669580  78.4203670  55.9901760  29.6922990  77.5867420  55.6503990
  30.1549910  78.9432190  56.1380090  26.1004370  72.4535150  42.0376820
  25.4758550  72.4495020  42.7630130  26.0134490  71.5866110  41.6412790
  25.0221450  73.3771780  49.0160590  25.3193780  74.2834610  48.9352610
  25.5707010  72.8890560  48.4020160  22.7759770  77.9558020  44.8852240
  22.5500690  77.7395190  45.7898860  21.9952300  78.3886480  44.5398210
  30.0057530  77.9621390  43.4842890  29.4066420  78.6857190  43.3006510
  30.5537140  77.8998170  42.7019340  25.2158980  78.8543600  55.5512510
  25.1202580  77.9138330  55.4012910  26.0590960  79.0758670  55.1560580
  28.6122400  76.5984930  45.5146170  29.0051970  76.9157130  44.7014860
  28.9739250  75.7196810  45.6290690  20.3469520  75.2657270  53.7046290
  19.9532910  76.1132480  53.9119070  19.6587920  74.6283640  53.8954930
  26.9214570  75.3492240  56.7743030  26.2312890  75.1564440  57.4089120
  27.6646870  75.6326880  57.3067330  17.6486570  73.1885730  47.7376370
  17.3599620  73.7588590  48.4501350  18.3932330  72.7090180  48.1007600
  17.8356800  77.1305850  38.9479090  17.7531470  78.0736610  39.0894080
  17.4839860  76.9880760  38.0691440  29.1977540  79.1890680  49.6096950
  28.4658660  79.6977490  49.9587050  28.8001880  78.3720660  49.3085730
  25.6354930  75.8644880  48.0149440  25.6390990  75.4234830  47.1653980
  26.5306050  76.1862210  48.1221260  21.4857310  75.7471370  46.9743650
  21.1457360  76.2246600  47.7310700  20.7234630  75.2936490  46.6144750
  25.6975080  76.8656960  41.0056200  25.8187900  76.8243440  41.9542020
  25.3123590  77.7281110  40.8502930  29.6603450  74.6424360  49.0219890
  29.6776190  75.0933010  49.8661740  29.4119030  73.7430000  49.2353330
  24.7096580  79.1758100  40.4039500  24.1413480  78.7276350  39.7775410
  25.4185580  79.5350880  39.8704650  33.0874200  72.0556540  54.8606270
  33.4119970  71.3246200  55.3864250  33.1230710  71.7370180  53.9587260
  19.7865760  83.0770120  54.2806230  19.4020550  82.4363790  54.8789190
  20.0977950  83.7806240  54.8500960  25.9362900  79.9246660  49.7614850
  26.3033030  79.4505230  50.5076190  25.7467960  80.7988230  50.1023190
  18.8003390  74.6690350  45.8908320  18.5150310  74.3046020  46.7286940
  18.7382250  73.9370810  45.2771460  23.7262270  78.9655300  52.0799060
  23.4219340  79.8447280  52.3049420  24.6808730  79.0255090  52.1156500
  22.2544060  83.1716290  42.6765910  21.4806320  82.6313910  42.5164630
  22.9838690  82.6522900  42.3383670  33.0132040  82.1681650  48.4692300
  33.7331160  82.6636940  48.0788410  32.8113860  81.4899540  47.8246170
  28.4741980  73.5619610  42.6121690  27.6606590  73.0632780  42.5367000
  28.2803930  74.4017860  42.1958040  28.3950840  82.2390710  54.3561300
  28.3288150  81.3186380  54.1018890  27.7655980  82.3366150  55.0705940
  31.1890370  77.9339260  40.9083850  32.0769990  78.2456490  40.7335190
  31.1595460  77.0611510  40.5164430  22.2981460  82.8396670  46.3144720
  22.8160130  82.0364930  46.2601610  21.8465480  82.7775810  47.1561550
  19.7826000  79.8058040  53.2270420  19.4240940  80.4711890  53.8143760
  19.4880560  78.9741590  53.5983040  22.9839120  80.2642280  56.1109970
  22.6839260  80.4099460  55.2137790  23.7550360  79.7047570  56.0183360
  33.4604640  79.2451100  40.3763710  33.3768360  79.6765320  39.5260150
  34.1798830  79.7049450  40.8090530  34.5378780  81.7018620  53.4533680
  33.8126970  82.2947400  53.2563070  35.0654240  81.6942160  52.6547050
  30.0678370  83.4278790  46.9517530  30.4202190  82.8306920  46.2918900
  29.1840700  83.1023020  47.1225780  18.2934050  79.8049300  39.8505020
  19.1628900  80.0874100  40.1340940  17.8024370  80.6185170  39.7353830
  25.4568860  81.1922510  43.9713300  25.9131640  82.0027760  44.1973490
  25.1057070  80.8745650  44.8031790  21.3580640  71.5360160  44.4435820
  21.2295270  71.5278060  45.3920740  20.5342660  71.8743250  44.0926830
  18.3574570  73.2951280  53.9042520  17.6433090  73.4948200  54.5095130
  18.7769610  72.5190850  54.2757320  32.4605520  82.9081760  41.3036350
  32.1727220  83.3694450  42.0914230  33.2557690  82.4479530  41.5720570
  20.2780560  81.6222770  41.9787080  19.6708510  82.3621670  41.9882380
  20.7529910  81.7122130  41.1525280  29.8513350  75.7873590  51.6543970
  30.2194170  74.9668800  51.9823540  28.9911550  75.8475480  52.0699620
  33.2175380  74.7430530  42.4631530  32.5888540  74.8476200  41.7489760
  32.7227300  74.9627310  43.2525410  25.1859410  77.0216480  43.8789410
  24.4775560  77.4902820  44.3203020  25.4703890  76.3638490  44.5134600
  26.8115340  78.4413180  51.8781940  27.3100590  78.9159000  52.5433790
  26.9538290  77.5176700  52.0851970  29.2174840  73.7467140  45.3185200
  29.0942620  73.7653270  44.3694710  30.1659400  73.7946080  45.4383600
  23.3894430  75.3301560  41.2540120  24.2384960  75.7671710  41.1880310
  23.0225700  75.6421820  42.0812180  34.0182200  74.6581140  52.7210330
  33.5155800  75.3986540  53.0604140  34.8338860  75.0465140  52.4047120
  32.3104210  79.9014320  46.1671690  31.3694350  79.9164550  46.3419380
  32.6248280  79.1150280  46.6131990  22.2885850  81.5833920  39.7275650
  23.0549120  81.4715280  40.2901080  22.3660540  80.8871890  39.0752420
  20.9832610  79.0158990  40.4108540  21.0636200  78.0686500  40.5225940
  21.8752360  79.3465870  40.5169200  18.5103410  80.8373910  55.6464710
  19.0142430  80.2581190  56.2180940  17.7710830  81.1214140  56.1841080
  25.4127030  83.5588100  39.2011000  25.3077670  82.9440450  39.9272380
  25.2451250  83.0353990  38.4174010  25.5641350  82.2444900  55.1800230
  24.7987020  82.8129900  55.0954900  25.7457310  81.9521110  54.2868460
  28.6529760  82.6208130  39.8052990  28.1039860  83.0677430  40.4495730
  29.2749020  82.1157380  40.3290660  20.5426490  78.9803500  56.5414780
  20.5831830  78.6817370  57.4500010  21.3971990  79.3811110  56.3822300
  24.3204880  81.5799050  41.7018290  24.7421300  81.4138920  42.5449680
  24.4455720  80.7699280  41.2073430  22.4832300  77.5595600  54.5089270
  21.9528760  77.0686550  53.8812610  23.1520370  77.9879800  53.9747200
  26.8332520  80.6036660  38.9495390  27.3538180  79.8885680  38.5836540
  27.4800920  81.2422530  39.2495900  31.3810360  82.0265060  54.2730460
  31.7951380  82.1810140  55.1220880  30.4461360  82.1520280  54.4356240
  31.8532530  79.3661220  56.2769610  32.4353300  78.6113540  56.1890090
  32.0294300  79.8968660  55.5001090  22.9704600  74.5257970  54.5886560
  22.8761470  73.9078720  53.8637430  22.3901990  75.2524260  54.3616470
  25.7366040  73.0831210  51.6213950  25.2883340  73.1055470  50.7759500
  25.1031240  72.6850230  52.2184250  26.1425590  81.9785540  52.2426390
  26.5613700  82.8218270  52.0702630  25.2234220  82.1157580  52.0133170
  28.4789490  79.7101720  53.6264230  28.5985700  79.1142860  54.3659070
  29.3383490  79.7471410  53.2065530  30.8177390  80.2638910  52.2026740
  30.2912610  80.7881530  51.5991880  31.1608730  80.8966300  52.8336470
  23.2163780  77.6532280  38.6476450  23.0152840  76.7899640  39.0089790
  23.0455830  77.5665640  37.7098050  25.2458260  76.2523070  54.8840050
  25.8357950  75.9438920  55.5717870  24.4278500  75.7802820  55.0399950
  30.0651690  75.8688880  55.1173070  29.3767210  75.2070420  55.0523060
  30.7857710  75.4227150  55.5621530  30.6952090  72.4640510  41.1763330
  30.9754380  71.6208410  41.5322750  29.9217820  72.6963620  41.6902080
  22.0146580  74.7532900  38.6354330  22.3172480  74.7600330  37.7273480
  22.7541170  74.4030760  39.1321990  25.2331510  73.6967520  39.6210530
  24.8853510  73.0191510  39.0412980  25.4344280  73.2357030  40.4353920
  35.0732810  81.7017240  41.7867240  35.8351720  82.2713890  41.8926930
  35.0887180  81.1344440  42.5575550  18.5737150  80.2255170  46.0174900
  17.9185990  79.9566810  45.3734600  19.4115100  80.1159650  45.5676880
  36.0792780  82.5567340  46.6309170  36.4501610  81.7734660  46.2245140
  36.7194710  83.2456440  46.4526470  35.1251980  81.9951610  38.9439760
  35.4000820  82.9030490  38.8158980  34.9362720  81.9314140  39.8801750
  31.5227590  75.0196460  40.2393390  31.9412470  74.8327440  39.3990050
  31.2163650  74.1675510  40.5496320  35.0217320  79.9320600  43.9369190
  34.6460920  79.1648530  43.5050480  34.2920440  80.3143300  44.4244120
  19.6113080  80.6107740  50.5578240  19.9786120  80.5235140  51.4374260
  19.0423900  79.8474290  50.4585100  34.4116940  79.0792120  53.5708710
  34.1803030  78.8504870  52.6706660  34.6721490  79.9991670  53.5253600
  19.1629080  77.5216830  54.4636660  18.2685130  77.4883590  54.8030370
  19.7026630  77.7203620  55.2287910  32.8505010  74.3048550  56.3488410
  33.7275190  74.3131950  56.7322410  32.8625850  73.5679390  55.7380760
  17.7875230  77.4354100  41.9600230  16.8839310  77.6984300  41.7851890
  18.2715850  77.7065270  41.1800190  34.2968280  78.1578090  47.2376430
  34.8205760  77.6640740  46.6066600  34.8827700  78.2928450  47.9824000
  34.4758000  78.2417960  50.7595980  33.5260710  78.2081500  50.8740970
  34.6571010  79.1518070  50.5245750  20.3302440  76.4919640  39.8694610
  21.0394140  76.0702860  39.3841890  19.6142380  76.5594870  39.2377960
  19.9776600  72.5458970  38.9097260  20.7004730  73.0867910  39.2278480
  20.2501120  72.2722390  38.0338800  33.7868250  77.4151440  43.1768840
  34.2827370  77.1822310  43.9617720  33.5884320  76.5763280  42.7606480
  19.6668790  71.7965160  48.8119880  20.3144980  71.2462540  48.3715040
  20.0870630  72.0508310  49.6335690  35.2155410  76.0512390  45.7106520
  35.1054690  75.8968430  46.6488790  35.9763000  75.5233330  45.4681930
  33.5621130  71.9906520  52.1689520  34.1993350  72.6040660  52.5348710
  33.7096020  72.0267180  51.2238750  36.1045680  73.8820310  38.9512660
  37.0294990  73.7501490  38.7430950  36.0821470  73.9613130  39.9049110
  36.1784170  74.6530970  41.5769370  35.3835670  74.5876090  42.1062280
  36.3827450  75.5881610  41.5654720  19.4200790  71.9520830  51.5545200
  19.0715610  72.4084650  52.3203380  19.0888490  71.0577960  51.6367630
  26.9325610  73.1432710  55.0764620  26.8714500  73.7354540  55.8260030
  27.8725990  73.0358670  54.9314880  29.5700170  72.8002770  54.7156910
  30.1840580  73.1182060  54.0537990  30.1149730  72.3151360  55.3352770
  20.0921430  71.4797030  54.8295970  20.6404420  71.2985080  54.0662080
  20.1576740  70.6891140  55.3652280  30.3108210  71.3634910  51.0426200
  29.4368050  71.6970020  50.8399130  30.2018960  70.8908090  51.8678070
  31.2180190  73.5705780  52.4267920  30.8893550  72.7557540  52.0469650
  32.1662490  73.5275590  52.3033610  28.0583030  72.2804750  49.9819110
  27.2754820  72.7550250  50.2615870  27.7645960  71.3759580  49.8732290
  32.6104100  72.9827850  48.0268200  33.0512190  72.9272950  47.1789800
  32.3411690  73.8985860  48.0978380  34.4742670  72.6143090  46.0377020
  34.4131070  71.6704310  45.8908040  35.2534700  72.7223180  46.5830480
  19.4023440  72.5852230  42.5032830  20.1602800  72.6981110  41.9296860
  18.9400610  73.4221430  42.4576260  25.9437250  74.6991500  45.4935140
  25.1311760  74.3248390  45.1531020  26.4478890  73.9436580  45.7956330
  30.4462230  71.3633950  46.7318210  31.0491600  71.9354160  47.2066730
  29.7055220  71.9273390  46.5092110  33.5896830  71.7655510  42.0058490
  33.7847460  72.6638960  42.2725920  32.8026700  71.5342590  42.4991440
  21.7748590  73.1116280  41.0434800  22.3041350  72.3246080  40.9142750
  22.4076910  73.7907470  41.2770330  23.9686430  72.8491420  44.0980190
  23.3389170  72.1478730  44.2650320  23.4291570  73.6095550  43.8813350
  24.0941990  72.1275400  56.5332680  23.8126260  72.6309000  55.7693500
  24.4761690  71.3297150  56.1674810  30.6957450  71.5428980  57.1113150
  30.5822900  71.8623590  58.0064670  31.5127190  71.9441490  56.8150430
  29.6015600  79.5621450  27.4747890  29.5209650  78.6476060  27.2039600
  29.1880020  80.0588520  26.7687600  27.7333640  81.3400470  29.3557160
  26.9575740  80.8600910  29.6455730  28.3846570  80.6606120  29.1813320
  21.7499470  81.6520280  30.2332920  20.9184350  81.3968990  30.6329430
  22.3580450  81.7231050  30.9690840  20.1591420  76.6122170  24.0175310
  19.2708120  76.9538140  23.9155190  20.4432610  76.4122490  23.1256140
  18.1224430  79.2127820  29.9015010  18.6940540  78.4450020  29.9018650
  18.1225970  79.5116580  28.9921620  27.1742630  84.0157660  29.3627320
  27.1050910  83.0747600  29.2016450  27.9362490  84.1059070  29.9349890
  19.3649300  74.6212180  31.6883940  19.1852140  73.7237930  31.9686700
  18.9629380  75.1684050  32.3630890  28.2047800  76.8228040  29.5896250
  28.5812620  75.9499920  29.4769920  28.1067310  77.1586740  28.6986690
  22.3352810  75.1953670  25.0513690  22.4419560  76.0957400  25.3582450
  21.4245170  75.1471640  24.7608340  31.9871920  74.3178480  26.5224590
  32.8081540  73.8275050  26.5650070  32.0206000  74.9076140  27.2756430
  19.9835970  77.1172680  30.2966280  20.6646080  77.3811050  30.9153680
  19.6684020  76.2773550  30.6304290  24.1760540  78.1640040  29.3838870
  24.6838760  78.6621010  30.0243890  24.7073780  77.3875240  29.2078230
  36.2771470  76.3345230  33.0868220  35.5723640  76.7226940  32.5683330
  36.5429390  77.0295520  33.6889150  22.4596640  72.8038600  33.6502290
  22.4615080  73.3210990  32.8448190  21.6300950  72.3268780  33.6272220
  28.8467730  82.9157910  25.1492190  28.2285000  83.3807360  24.5854910
  29.3590980  83.6085390  25.5661700  23.7099490  82.4433780  31.8275790
  23.3768870  83.0702700  32.4696860  23.8866170  82.9695660  31.0477460
  32.2233400  76.2578860  29.2952130  31.5188970  76.5463750  29.8755240
  32.5845560  77.0678970  28.9351690  22.1411970  74.5148560  31.6572740
  22.4828780  75.3590610  31.3626610  21.2027780  74.6632300  31.7738080
  35.2920320  75.7033650  29.6861340  34.3445230  75.7372630  29.8176770
  35.6170310  76.5172600  30.0710700  25.8239860  72.0030830  27.9817330
  26.1314840  71.4477720  27.2652830  24.8940560  72.1375290  27.7990320
  30.7740360  82.6227960  31.6007400  31.1909150  82.4088070  30.7660860
  31.4980180  82.8800750  32.1716020  28.2120620  80.0679660  24.7177450
  27.2849900  80.0017040  24.9465920  28.3645440  81.0059790  24.6032690
  28.1989700  76.3396660  21.7144610  27.2593370  76.5010620  21.7997070
  28.5172960  77.0582340  21.1680600  34.7202460  81.0215180  31.6923640
  33.8921090  81.0908270  31.2173770  35.3152940  81.6069490  31.2239470
  32.2417910  81.6299960  25.2212700  31.6230330  81.2919510  24.5739000
  32.2242360  80.9859720  25.9291890  31.6844470  77.8084500  32.6378510
  31.2715650  78.6338210  32.8918500  30.9520420  77.2229540  32.4454870
  23.8177260  80.5944400  27.4997180  23.4134260  79.8821650  27.0043080
  23.9040380  80.2497640  28.3885220  22.5305880  77.3687610  31.2796220
  23.0820470  77.4782950  30.5049470  23.0449390  77.7425210  31.9951450
  30.4182610  80.8686770  22.2285450  30.8575890  80.0309200  22.0823270
  31.1311030  81.5016170  22.3149590  22.2048610  80.8906970  34.8901560
  22.0656380  81.7629770  35.2588960  21.3229970  80.5479780  34.7449500
  33.9999750  72.1229580  20.5426490  33.6872410  72.2156410  21.4425560
  34.7612220  72.7010610  20.4923920  20.5181890  79.4889380  25.0003830
  20.3979490  80.2151470  24.3885100  20.2082780  78.7192290  24.5231740
  18.1567260  82.6604520  30.8072470  18.2347680  82.7953290  29.8628190
  18.7708940  81.9520410  31.0000590  35.2101040  76.8601080  36.5200630
  34.5945310  77.3680750  35.9916090  34.8897460  75.9599410  36.4626570
  18.2126780  83.7018690  33.3466930  18.3757820  83.2324050  32.5286300
  18.6779230  83.1942250  34.0115770  22.9845550  72.8324450  28.3827500
  22.5413700  73.6133990  28.0512020  23.5430540  73.1554340  29.0898440
  27.2715360  75.6992970  33.9862820  26.8094730  75.9075990  34.7982760
  26.8693470  74.8852320  33.6833490  32.2719870  76.9201920  35.1159480
  31.4213460  76.6207670  35.4368550  32.1121660  77.1643930  34.2043300
  29.3669580  78.4203670  37.2158270  29.6922990  77.5867420  36.8760500
  30.1549910  78.9432190  37.3636600  26.1004370  72.4535150  23.2633330
  25.4758550  72.4495020  23.9886640  26.0134490  71.5866110  22.8669300
  25.0221450  73.3771780  30.2417100  25.3193780  74.2834610  30.1609120
  25.5707010  72.8890560  29.6276670  22.7759770  77.9558020  26.1108750
  22.5500690  77.7395190  27.0155370  21.9952300  78.3886480  25.7654720
  30.0057530  77.9621390  24.7099400  29.4066420  78.6857190  24.5263020
  30.5537140  77.8998170  23.9275850  25.2158980  78.8543600  36.7769020
  25.1202580  77.9138330  36.6269420  26.0590960  79.0758670  36.3817090
  28.6122400  76.5984930  26.7402680  29.0051970  76.9157130  25.9271370
  28.9739250  75.7196810  26.8547200  20.3469520  75.2657270  34.9302800
  19.9532910  76.1132480  35.1375580  19.6587920  74.6283640  35.1211440
  26.9214570  75.3492240  37.9999540  26.2312890  75.1564440  38.6345630
  27.6646870  75.6326880  38.5323840  17.6486570  73.1885730  28.9632880
  17.3599620  73.7588590  29.6757860  18.3932330  72.7090180  29.3264110
  17.8356800  77.1305850  20.1735600  17.7531470  78.0736610  20.3150590
  17.4839860  76.9880760  19.2947950  29.1977540  79.1890680  30.8353460
  28.4658660  79.6977490  31.1843560  28.8001880  78.3720660  30.5342240
  25.6354930  75.8644880  29.2405950  25.6390990  75.4234830  28.3910490
  26.5306050  76.1862210  29.3477770  21.4857310  75.7471370  28.2000160
  21.1457360  76.2246600  28.9567210  20.7234630  75.2936490  27.8401260
  25.6975080  76.8656960  22.2312710  25.8187900  76.8243440  23.1798530
  25.3123590  77.7281110  22.0759440  29.6603450  74.6424360  30.2476400
  29.6776190  75.0933010  31.0918250  29.4119030  73.7430000  30.4609840
  24.7096580  79.1758100  21.6296010  24.1413480  78.7276350  21.0031920
  25.4185580  79.5350880  21.0961160  33.0874200  72.0556540  36.0862780
  33.4119970  71.3246200  36.6120760  33.1230710  71.7370180  35.1843770
  19.7865760  83.0770120  35.5062740  19.4020550  82.4363790  36.1045700
  20.0977950  83.7806240  36.0757470  25.9362900  79.9246660  30.9871360
  26.3033030  79.4505230  31.7332700  25.7467960  80.7988230  31.3279700
  18.8003390  74.6690350  27.1164830  18.5150310  74.3046020  27.9543450
  18.7382250  73.9370810  26.5027970  23.7262270  78.9655300  33.3055570
  23.4219340  79.8447280  33.5305930  24.6808730  79.0255090  33.3413010
  22.2544060  83.1716290  23.9022420  21.4806320  82.6313910  23.7421140
  22.9838690  82.6522900  23.5640180  33.0132040  82.1681650  29.6948810
  33.7331160  82.6636940  29.3044920  32.8113860  81.4899540  29.0502680
  28.4741980  73.5619610  23.8378200  27.6606590  73.0632780  23.7623510
  28.2803930  74.4017860  23.4214550  28.3950840  82.2390710  35.5817810
  28.3288150  81.3186380  35.3275400  27.7655980  82.3366150  36.2962450
  31.1890370  77.9339260  22.1340360  32.0769990  78.2456490  21.9591700
  31.1595460  77.0611510  21.7420940  22.2981460  82.8396670  27.5401230
  22.8160130  82.0364930  27.4858120  21.8465480  82.7775810  28.3818060
  19.7826000  79.8058040  34.4526930  19.4240940  80.4711890  35.0400270
  19.4880560  78.9741590  34.8239550  22.9839120  80.2642280  37.3366480
  22.6839260  80.4099460  36.4394300  23.7550360  79.7047570  37.2439870
  33.4604640  79.2451100  21.6020220  33.3768360  79.6765320  20.7516660
  34.1798830  79.7049450  22.0347040  34.5378780  81.7018620  34.6790190
  33.8126970  82.2947400  34.4819580  35.0654240  81.6942160  33.8803560
  30.0678370  83.4278790  28.1774040  30.4202190  82.8306920  27.5175410
  29.1840700  83.1023020  28.3482290  18.2934050  79.8049300  21.0761530
  19.1628900  80.0874100  21.3597450  17.8024370  80.6185170  20.9610340
  25.4568860  81.1922510  25.1969810  25.9131640  82.0027760  25.4230000
  25.1057070  80.8745650  26.0288300  21.3580640  71.5360160  25.6692330
  21.2295270  71.5278060  26.6177250  20.5342660  71.8743250  25.3183340
  18.3574570  73.2951280  35.1299030  17.6433090  73.4948200  35.7351640
  18.7769610  72.5190850  35.5013830  32.4605520  82.9081760  22.5292860
  32.1727220  83.3694450  23.3170740  33.2557690  82.4479530  22.7977080
  20.2780560  81.6222770  23.2043590  19.6708510  82.3621670  23.2138890
  20.7529910  81.7122130  22.3781790  29.8513350  75.7873590  32.8800480
  30.2194170  74.9668800  33.2080050  28.9911550  75.8475480  33.2956130
  33.2175380  74.7430530  23.6888040  32.5888540  74.8476200  22.9746270
  32.7227300  74.9627310  24.4781920  25.1859410  77.0216480  25.1045920
  24.4775560  77.4902820  25.5459530  25.4703890  76.3638490  25.7391110
  26.8115340  78.4413180  33.1038450  27.3100590  78.9159000  33.7690300
  26.9538290  77.5176700  33.3108480  29.2174840  73.7467140  26.5441710
  29.0942620  73.7653270  25.5951220  30.1659400  73.7946080  26.6640110
  23.3894430  75.3301560  22.4796630  24.2384960  75.7671710  22.4136820
  23.0225700  75.6421820  23.3068690  34.0182200  74.6581140  33.9466840
  33.5155800  75.3986540  34.2860650  34.8338860  75.0465140  33.6303630
  32.3104210  79.9014320  27.3928200  31.3694350  79.9164550  27.5675890
  32.6248280  79.1150280  27.8388500  22.2885850  81.5833920  20.9532160
  23.0549120  81.4715280  21.5157590  22.3660540  80.8871890  20.3008930
  20.9832610  79.0158990  21.6365050  21.0636200  78.0686500  21.7482450
  21.8752360  79.3465870  21.7425710  18.5103410  80.8373910  36.8721220
  19.0142430  80.2581190  37.4437450  17.7710830  81.1214140  37.4097590
  25.4127030  83.5588100  20.4267510  25.3077670  82.9440450  21.1528890
  25.2451250  83.0353990  19.6430520  25.5641350  82.2444900  36.4056740
  24.7987020  82.8129900  36.3211410  25.7457310  81.9521110  35.5124970
  28.6529760  82.6208130  21.0309500  28.1039860  83.0677430  21.6752240
  29.2749020  82.1157380  21.5547170  20.5426490  78.9803500  37.7671290
  20.5831830  78.6817370  38.6756520  21.3971990  79.3811110  37.6078810
  24.3204880  81.5799050  22.9274800  24.7421300  81.4138920  23.7706190
  24.4455720  80.7699280  22.4329940  22.4832300  77.5595600  35.7345780
  21.9528760  77.0686550  35.1069120  23.1520370  77.9879800  35.2003710
  26.8332520  80.6036660  20.1751900  27.3538180  79.8885680  19.8093050
  27.4800920  81.2422530  20.4752410  31.3810360  82.0265060  35.4986970
  31.7951380  82.1810140  36.3477390  30.4461360  82.1520280  35.6612750
  31.8532530  79.3661220  37.5026120  32.4353300  78.6113540  37.4146600
  32.0294300  79.8968660  36.7257600  22.9704600  74.5257970  35.8143070
  22.8761470  73.9078720  35.0893940  22.3901990  75.2524260  35.5872980
  25.7366040  73.0831210  32.8470460  25.2883340  73.1055470  32.0016010
  25.1031240  72.6850230  33.4440760  26.1425590  81.9785540  33.4682900
  26.5613700  82.8218270  33.2959140  25.2234220  82.1157580  33.2389680
  28.4789490  79.7101720  34.8520740  28.5985700  79.1142860  35.5915580
  29.3383490  79.7471410  34.4322040  30.8177390  80.2638910  33.4283250
  30.2912610  80.7881530  32.8248390  31.1608730  80.8966300  34.0592980
  23.2163780  77.6532280  19.8732960  23.0152840  76.7899640  20.2346300
  23.0455830  77.5665640  18.9354560  25.2458260  76.2523070  36.1096560
  25.8357950  75.9438920  36.7974380  24.4278500  75.7802820  36.2656460
  30.0651690  75.8688880  36.3429580  29.3767210  75.2070420  36.2779570
  30.7857710  75.4227150  36.7878040  30.6952090  72.4640510  22.4019840
  30.9754380  71.6208410  22.7579260  29.9217820  72.6963620  22.9158590
  22.0146580  74.7532900  19.8610840  22.3172480  74.7600330  18.9529990
  22.7541170  74.4030760  20.3578500  25.2331510  73.6967520  20.8467040
  24.8853510  73.0191510  20.2669490  25.4344280  73.2357030  21.6610430
  35.0732810  81.7017240  23.0123750  35.8351720  82.2713890  23.1183440
  35.0887180  81.1344440  23.7832060  18.5737150  80.2255170  27.2431410
  17.9185990  79.9566810  26.5991110  19.4115100  80.1159650  26.7933390
  36.0792780  82.5567340  27.8565680  36.4501610  81.7734660  27.4501650
  36.7194710  83.2456440  27.6782980  35.1251980  81.9951610  20.1696270
  35.4000820  82.9030490  20.0415490  34.9362720  81.9314140  21.1058260
  31.5227590  75.0196460  21.4649900  31.9412470  74.8327440  20.6246560
  31.2163650  74.1675510  21.7752830  35.0217320  79.9320600  25.1625700
  34.6460920  79.1648530  24.7306990  34.2920440  80.3143300  25.6500630
  19.6113080  80.6107740  31.7834750  19.9786120  80.5235140  32.6630770
  19.0423900  79.8474290  31.6841610  34.4116940  79.0792120  34.7965220
  34.1803030  78.8504870  33.8963170  34.6721490  79.9991670  34.7510110
  19.1629080  77.5216830  35.6893170  18.2685130  77.4883590  36.0286880
  19.7026630  77.7203620  36.4544420  32.8505010  74.3048550  37.5744920
  33.7275190  74.3131950  37.9578920  32.8625850  73.5679390  36.9637270
  17.7875230  77.4354100  23.1856740  16.8839310  77.6984300  23.0108400
  18.2715850  77.7065270  22.4056700  34.2968280  78.1578090  28.4632940
  34.8205760  77.6640740  27.8323110  34.8827700  78.2928450  29.2080510
  34.4758000  78.2417960  31.9852490  33.5260710  78.2081500  32.0997480
  34.6571010  79.1518070  31.7502260  20.3302440  76.4919640  21.0951120
  21.0394140  76.0702860  20.6098400  19.6142380  76.5594870  20.4634470
  19.9776600  72.5458970  20.1353770  20.7004730  73.0867910  20.4534990
  20.2501120  72.2722390  19.2595310  33.7868250  77.4151440  24.4025350
  34.2827370  77.1822310  25.1874230  33.5884320  76.5763280  23.9862990
  19.6668790  71.7965160  30.0376390  20.3144980  71.2462540  29.5971550
  20.0870630  72.0508310  30.8592200  35.2155410  76.0512390  26.9363030
  35.1054690  75.8968430  27.8745300  35.9763000  75.5233330  26.6938440
  33.5621130  71.9906520  33.3946030  34.1993350  72.6040660  33.7605220
  33.7096020  72.0267180  32.4495260  36.1045680  73.8820310  20.1769170
  37.0294990  73.7501490  19.9687460  36.0821470  73.9613130  21.1305620
  36.1784170  74.6530970  22.8025880  35.3835670  74.5876090  23.3318790
  36.3827450  75.5881610  22.7911230  19.4200790  71.9520830  32.7801710
  19.0715610  72.4084650  33.5459890  19.0888490  71.0577960  32.8624140
  26.9325610  73.1432710  36.3021130  26.8714500  73.7354540  37.0516540
  27.8725990  73.0358670  36.1571390  29.5700170  72.8002770  35.9413420
  30.1840580  73.1182060  35.2794500  30.1149730  72.3151360  36.5609280
  20.0921430  71.4797030  36.0552480  20.6404420  71.2985080  35.2918590
  20.1576740  70.6891140  36.5908790  30.3108210  71.3634910  32.2682710
  29.4368050  71.6970020  32.0655640  30.2018960  70.8908090  33.0934580
  31.2180190  73.5705780  33.6524430  30.8893550  72.7557540  33.2726160
  32.1662490  73.5275590  33.5290120  28.0583030  72.2804750  31.2075620
  27.2754820  72.7550250  31.4872380  27.7645960  71.3759580  31.0988800
  32.6104100  72.9827850  29.2524710  33.0512190  72.9272950  28.4046310
  32.3411690  73.8985860  29.3234890  34.4742670  72.6143090  27.2633530
  34.4131070  71.6704310  27.1164550  35.2534700  72.7223180  27.8086990
  19.4023440  72.5852230  23.7289340  20.1602800  72.6981110  23.1553370
  18.9400610  73.4221430  23.6832770  25.9437250  74.6991500  26.7191650
  25.1311760  74.3248390  26.3787530  26.4478890  73.9436580  27.0212840
  30.4462230  71.3633950  27.9574720  31.0491600  71.9354160  28.4323240
  29.7055220  71.9273390  27.7348620  33.5896830  71.7655510  23.2315000
  33.7847460  72.6638960  23.4982430  32.8026700  71.5342590  23.7247950
  21.7748590  73.1116280  22.2691310  22.3041350  72.3246080  22.1399260
  22.4076910  73.7907470  22.5026840  23.9686430  72.8491420  25.3236700
  23.3389170  72.1478730  25.4906830  23.4291570  73.6095550  25.1069860
  24.0941990  72.1275400  37.7589190  23.8126260  72.6309000  36.9950010
  24.4761690  71.3297150  37.3931320  30.6957450  71.5428980  38.3369660
  30.5822900  71.8623590  39.2321180  31.5127190  71.9441490  38.0406940
  29.6015600  79.5621450   8.7004400  29.5209650  78.6476060   8.4296110
  29.1880020  80.0588520   7.9944110  27.7333640  81.3400470  10.5813670
  26.9575740  80.8600910  10.8712240  28.3846570  80.6606120  10.4069830
  21.7499470  81.6520280  11.4589430  20.9184350  81.3968990  11.8585940
  22.3580450  81.7231050  12.1947350  20.1591420  76.6122170   5.2431820
  19.2708120  76.9538140   5.1411700  20.4432610  76.4122490   4.3512650
  18.1224430  79.2127820  11.1271520  18.6940540  78.4450020  11.1275160
  18.1225970  79.5116580  10.2178130  27.1742630  84.0157660  10.5883830
  27.1050910  83.0747600  10.4272960  27.9362490  84.1059070  11.1606400
  19.3649300  74.6212180  12.9140450  19.1852140  73.7237930  13.1943210
  18.9629380  75.1684050  13.5887400  28.2047800  76.8228040  10.8152760
  28.5812620  75.9499920  10.7026430  28.1067310  77.1586740   9.9243200
  22.3352810  75.1953670   6.2770200  22.4419560  76.0957400   6.5838960
  21.4245170  75.1471640   5.9864850  31.9871920  74.3178480   7.7481100
  32.8081540  73.8275050   7.7906580  32.0206000  74.9076140   8.5012940
  19.9835970  77.1172680  11.5222790  20.6646080  77.3811050  12.1410190
  19.6684020  76.2773550  11.8560800  24.1760540  78.1640040  10.6095380
  24.6838760  78.6621010  11.2500400  24.7073780  77.3875240  10.4334740
  36.2771470  76.3345230  14.3124730  35.5723640  76.7226940  13.7939840
  36.5429390  77.0295520  14.9145660  22.4596640  72.8038600  14.8758800
  22.4615080  73.3210990  14.0704700  21.6300950  72.3268780  14.8528730
  28.8467730  82.9157910   6.3748700  28.2285000  83.3807360   5.8111420
  29.3590980  83.6085390   6.7918210  23.7099490  82.4433780  13.0532300
  23.3768870  83.0702700  13.6953370  23.8866170  82.9695660  12.2733970
  32.2233400  76.2578860  10.5208640  31.5188970  76.5463750  11.1011750
  32.5845560  77.0678970  10.1608200  22.1411970  74.5148560  12.8829250
  22.4828780  75.3590610  12.5883120  21.2027780  74.6632300  12.9994590
  35.2920320  75.7033650  10.9117850  34.3445230  75.7372630  11.0433280
  35.6170310  76.5172600  11.2967210  25.8239860  72.0030830   9.2073840
  26.1314840  71.4477720   8.4909340  24.8940560  72.1375290   9.0246830
  30.7740360  82.6227960  12.8263910  31.1909150  82.4088070  11.9917370
  31.4980180  82.8800750  13.3972530  28.2120620  80.0679660   5.9433960
  27.2849900  80.0017040   6.1722430  28.3645440  81.0059790   5.8289200
  28.1989700  76.3396660   2.9401120  27.2593370  76.5010620   3.0253580
  28.5172960  77.0582340   2.3937110  34.7202460  81.0215180  12.9180150
  33.8921090  81.0908270  12.4430280  35.3152940  81.6069490  12.4495980
  32.2417910  81.6299960   6.4469210  31.6230330  81.2919510   5.7995510
  32.2242360  80.9859720   7.1548400  31.6844470  77.8084500  13.8635020
  31.2715650  78.6338210  14.1175010  30.9520420  77.2229540  13.6711380
  23.8177260  80.5944400   8.7253690  23.4134260  79.8821650   8.2299590
  23.9040380  80.2497640   9.6141730  22.5305880  77.3687610  12.5052730
  23.0820470  77.4782950  11.7305980  23.0449390  77.7425210  13.2207960
  30.4182610  80.8686770   3.4541960  30.8575890  80.0309200   3.3079780
  31.1311030  81.5016170   3.5406100  22.2048610  80.8906970  16.1158070
  22.0656380  81.7629770  16.4845470  21.3229970  80.5479780  15.9706010
  33.9999750  72.1229580   1.7683000  33.6872410  72.2156410   2.6682070
  34.7612220  72.7010610   1.7180430  20.5181890  79.4889380   6.2260340
  20.3979490  80.2151470   5.6141610  20.2082780  78.7192290   5.7488250
  18.1567260  82.6604520  12.0328980  18.2347680  82.7953290  11.0884700
  18.7708940  81.9520410  12.2257100  35.2101040  76.8601080  17.7457140
  34.5945310  77.3680750  17.2172600  34.8897460  75.9599410  17.6883080
  18.2126780  83.7018690  14.5723440  18.3757820  83.2324050  13.7542810
  18.6779230  83.1942250  15.2372280  22.9845550  72.8324450   9.6084010
  22.5413700  73.6133990   9.2768530  23.5430540  73.1554340  10.3154950
  27.2715360  75.6992970  15.2119330  26.8094730  75.9075990  16.0239270
  26.8693470  74.8852320  14.9090000  32.2719870  76.9201920  16.3415990
  31.4213460  76.6207670  16.6625060  32.1121660  77.1643930  15.4299810
  29.3669580  78.4203670  18.4414780  29.6922990  77.5867420  18.1017010
  30.1549910  78.9432190  18.5893110  26.1004370  72.4535150   4.4889840
  25.4758550  72.4495020   5.2143150  26.0134490  71.5866110   4.0925810
  25.0221450  73.3771780  11.4673610  25.3193780  74.2834610  11.3865630
  25.5707010  72.8890560  10.8533180  22.7759770  77.9558020   7.3365260
  22.5500690  77.7395190   8.2411880  21.9952300  78.3886480   6.9911230
  30.0057530  77.9621390   5.9355910  29.4066420  78.6857190   5.7519530
  30.5537140  77.8998170   5.1532360  25.2158980  78.8543600  18.0025530
  25.1202580  77.9138330  17.8525930  26.0590960  79.0758670  17.6073600
  28.6122400  76.5984930   7.9659190  29.0051970  76.9157130   7.1527880
  28.9739250  75.7196810   8.0803710  20.3469520  75.2657270  16.1559310
  19.9532910  76.1132480  16.3632090  19.6587920  74.6283640  16.3467950
  26.9214570  75.3492240  19.2256050  26.2312890  75.1564440  19.8602140
  27.6646870  75.6326880  19.7580350  17.6486570  73.1885730  10.1889390
  17.3599620  73.7588590  10.9014370  18.3932330  72.7090180  10.5520620
  29.1977540  79.1890680  12.0609970  28.4658660  79.6977490  12.4100070
  28.8001880  78.3720660  11.7598750  25.6354930  75.8644880  10.4662460
  25.6390990  75.4234830   9.6167000  26.5306050  76.1862210  10.5734280
  21.4857310  75.7471370   9.4256670  21.1457360  76.2246600  10.1823720
  20.7234630  75.2936490   9.0657770  25.6975080  76.8656960   3.4569220
  25.8187900  76.8243440   4.4055040  25.3123590  77.7281110   3.3015950
  29.6603450  74.6424360  11.4732910  29.6776190  75.0933010  12.3174760
  29.4119030  73.7430000  11.6866350  24.7096580  79.1758100   2.8552520
  24.1413480  78.7276350   2.2288430  25.4185580  79.5350880   2.3217670
  33.0874200  72.0556540  17.3119290  33.4119970  71.3246200  17.8377270
  33.1230710  71.7370180  16.4100280  19.7865760  83.0770120  16.7319250
  19.4020550  82.4363790  17.3302210  20.0977950  83.7806240  17.3013980
  25.9362900  79.9246660  12.2127870  26.3033030  79.4505230  12.9589210
  25.7467960  80.7988230  12.5536210  18.8003390  74.6690350   8.3421340
  18.5150310  74.3046020   9.1799960  18.7382250  73.9370810   7.7284480
  23.7262270  78.9655300  14.5312080  23.4219340  79.8447280  14.7562440
  24.6808730  79.0255090  14.5669520  22.2544060  83.1716290   5.1278930
  21.4806320  82.6313910   4.9677650  22.9838690  82.6522900   4.7896690
  33.0132040  82.1681650  10.9205320  33.7331160  82.6636940  10.5301430
  32.8113860  81.4899540  10.2759190  28.4741980  73.5619610   5.0634710
  27.6606590  73.0632780   4.9880020  28.2803930  74.4017860   4.6471060
  28.3950840  82.2390710  16.8074320  28.3288150  81.3186380  16.5531910
  27.7655980  82.3366150  17.5218960  31.1890370  77.9339260   3.3596870
  32.0769990  78.2456490   3.1848210  31.1595460  77.0611510   2.9677450
  22.2981460  82.8396670   8.7657740  22.8160130  82.0364930   8.7114630
  21.8465480  82.7775810   9.6074570  19.7826000  79.8058040  15.6783440
  19.4240940  80.4711890  16.2656780  19.4880560  78.9741590  16.0496060
  22.9839120  80.2642280  18.5622990  22.6839260  80.4099460  17.6650810
  23.7550360  79.7047570  18.4696380  33.4604640  79.2451100   2.8276730
  33.3768360  79.6765320   1.9773170  34.1798830  79.7049450   3.2603550
  34.5378780  81.7018620  15.9046700  33.8126970  82.2947400  15.7076090
  35.0654240  81.6942160  15.1060070  30.0678370  83.4278790   9.4030550
  30.4202190  82.8306920   8.7431920  29.1840700  83.1023020   9.5738800
  18.2934050  79.8049300   2.3018040  19.1628900  80.0874100   2.5853960
  17.8024370  80.6185170   2.1866850  25.4568860  81.1922510   6.4226320
  25.9131640  82.0027760   6.6486510  25.1057070  80.8745650   7.2544810
  21.3580640  71.5360160   6.8948840  21.2295270  71.5278060   7.8433760
  20.5342660  71.8743250   6.5439850  18.3574570  73.2951280  16.3555540
  17.6433090  73.4948200  16.9608150  18.7769610  72.5190850  16.7270340
  32.4605520  82.9081760   3.7549370  32.1727220  83.3694450   4.5427250
  33.2557690  82.4479530   4.0233590  20.2780560  81.6222770   4.4300100
  19.6708510  82.3621670   4.4395400  20.7529910  81.7122130   3.6038300
  29.8513350  75.7873590  14.1056990  30.2194170  74.9668800  14.4336560
  28.9911550  75.8475480  14.5212640  33.2175380  74.7430530   4.9144550
  32.5888540  74.8476200   4.2002780  32.7227300  74.9627310   5.7038430
  25.1859410  77.0216480   6.3302430  24.4775560  77.4902820   6.7716040
  25.4703890  76.3638490   6.9647620  26.8115340  78.4413180  14.3294960
  27.3100590  78.9159000  14.9946810  26.9538290  77.5176700  14.5364990
  29.2174840  73.7467140   7.7698220  29.0942620  73.7653270   6.8207730
  30.1659400  73.7946080   7.8896620  23.3894430  75.3301560   3.7053140
  24.2384960  75.7671710   3.6393330  23.0225700  75.6421820   4.5325200
  34.0182200  74.6581140  15.1723350  33.5155800  75.3986540  15.5117160
  34.8338860  75.0465140  14.8560140  32.3104210  79.9014320   8.6184710
  31.3694350  79.9164550   8.7932400  32.6248280  79.1150280   9.0645010
  20.9832610  79.0158990   2.8621560  21.0636200  78.0686500   2.9738960
  21.8752360  79.3465870   2.9682220  18.5103410  80.8373910  18.0977730
  19.0142430  80.2581190  18.6693960  17.7710830  81.1214140  18.6354100
  25.5641350  82.2444900  17.6313250  24.7987020  82.8129900  17.5467920
  25.7457310  81.9521110  16.7381480  28.6529760  82.6208130   2.2566010
  28.1039860  83.0677430   2.9008750  29.2749020  82.1157380   2.7803680
  20.5426490  78.9803500  18.9927800  20.5831830  78.6817370  19.9013030
  21.3971990  79.3811110  18.8335320  24.3204880  81.5799050   4.1531310
  24.7421300  81.4138920   4.9962700  24.4455720  80.7699280   3.6586450
  22.4832300  77.5595600  16.9602290  21.9528760  77.0686550  16.3325630
  23.1520370  77.9879800  16.4260220  31.3810360  82.0265060  16.7243480
  31.7951380  82.1810140  17.5733900  30.4461360  82.1520280  16.8869260
  31.8532530  79.3661220  18.7282630  32.4353300  78.6113540  18.6403110
  32.0294300  79.8968660  17.9514110  22.9704600  74.5257970  17.0399580
  22.8761470  73.9078720  16.3150450  22.3901990  75.2524260  16.8129490
  25.7366040  73.0831210  14.0726970  25.2883340  73.1055470  13.2272520
  25.1031240  72.6850230  14.6697270  26.1425590  81.9785540  14.6939410
  26.5613700  82.8218270  14.5215650  25.2234220  82.1157580  14.4646190
  28.4789490  79.7101720  16.0777250  28.5985700  79.1142860  16.8172090
  29.3383490  79.7471410  15.6578550  30.8177390  80.2638910  14.6539760
  30.2912610  80.7881530  14.0504900  31.1608730  80.8966300  15.2849490
  25.2458260  76.2523070  17.3353070  25.8357950  75.9438920  18.0230890
  24.4278500  75.7802820  17.4912970  30.0651690  75.8688880  17.5686090
  29.3767210  75.2070420  17.5036080  30.7857710  75.4227150  18.0134550
  30.6952090  72.4640510   3.6276350  30.9754380  71.6208410   3.9835770
  29.9217820  72.6963620   4.1415100  35.0732810  81.7017240   4.2380260
  35.8351720  82.2713890   4.3439950  35.0887180  81.1344440   5.0088570
  18.5737150  80.2255170   8.4687920  17.9185990  79.9566810   7.8247620
  19.4115100  80.1159650   8.0189900  36.0792780  82.5567340   9.0822190
  36.4501610  81.7734660   8.6758160  36.7194710  83.2456440   8.9039490
  31.5227590  75.0196460   2.6906410  31.9412470  74.8327440   1.8503070
  31.2163650  74.1675510   3.0009340  35.0217320  79.9320600   6.3882210
  34.6460920  79.1648530   5.9563500  34.2920440  80.3143300   6.8757140
  19.6113080  80.6107740  13.0091260  19.9786120  80.5235140  13.8887280
  19.0423900  79.8474290  12.9098120  34.4116940  79.0792120  16.0221730
  34.1803030  78.8504870  15.1219680  34.6721490  79.9991670  15.9766620
  19.1629080  77.5216830  16.9149680  18.2685130  77.4883590  17.2543390
  19.7026630  77.7203620  17.6800930  32.8505010  74.3048550  18.8001430
  33.7275190  74.3131950  19.1835430  32.8625850  73.5679390  18.1893780
  17.7875230  77.4354100   4.4113250  16.8839310  77.6984300   4.2364910
  18.2715850  77.7065270   3.6313210  34.2968280  78.1578090   9.6889450
  34.8205760  77.6640740   9.0579620  34.8827700  78.2928450  10.4337020
  34.4758000  78.2417960  13.2109000  33.5260710  78.2081500  13.3253990
  34.6571010  79.1518070  12.9758770  20.3302440  76.4919640   2.3207630
  21.0394140  76.0702860   1.8354910  19.6142380  76.5594870   1.6890980
  33.7868250  77.4151440   5.6281860  34.2827370  77.1822310   6.4130740
  33.5884320  76.5763280   5.2119500  19.6668790  71.7965160  11.2632900
  20.3144980  71.2462540  10.8228060  20.0870630  72.0508310  12.0848710
  35.2155410  76.0512390   8.1619540  35.1054690  75.8968430   9.1001810
  35.9763000  75.5233330   7.9194950  33.5621130  71.9906520  14.6202540
  34.1993350  72.6040660  14.9861730  33.7096020  72.0267180  13.6751770
  36.1784170  74.6530970   4.0282390  35.3835670  74.5876090   4.5575300
  36.3827450  75.5881610   4.0167740  19.4200790  71.9520830  14.0058220
  19.0715610  72.4084650  14.7716400  19.0888490  71.0577960  14.0880650
  26.9325610  73.1432710  17.5277640  26.8714500  73.7354540  18.2773050
  27.8725990  73.0358670  17.3827900  29.5700170  72.8002770  17.1669930
  30.1840580  73.1182060  16.5051010  30.1149730  72.3151360  17.7865790
  20.0921430  71.4797030  17.2808990  20.6404420  71.2985080  16.5175100
  20.1576740  70.6891140  17.8165300  30.3108210  71.3634910  13.4939220
  29.4368050  71.6970020  13.2912150  30.2018960  70.8908090  14.3191090
  31.2180190  73.5705780  14.8780940  30.8893550  72.7557540  14.4982670
  32.1662490  73.5275590  14.7546630  28.0583030  72.2804750  12.4332130
  27.2754820  72.7550250  12.7128890  27.7645960  71.3759580  12.3245310
  32.6104100  72.9827850  10.4781220  33.0512190  72.9272950   9.6302820
  32.3411690  73.8985860  10.5491400  34.4742670  72.6143090   8.4890040
  34.4131070  71.6704310   8.3421060  35.2534700  72.7223180   9.0343500
  19.4023440  72.5852230   4.9545850  20.1602800  72.6981110   4.3809880
  18.9400610  73.4221430   4.9089280  25.9437250  74.6991500   7.9448160
  25.1311760  74.3248390   7.6044040  26.4478890  73.9436580   8.2469350
  30.4462230  71.3633950   9.1831230  31.0491600  71.9354160   9.6579750
  29.7055220  71.9273390   8.9605130  33.5896830  71.7655510   4.4571510
  33.7847460  72.6638960   4.7238940  32.8026700  71.5342590   4.9504460
  21.7748590  73.1116280   3.4947820  22.3041350  72.3246080   3.3655770
  22.4076910  73.7907470   3.7283350  23.9686430  72.8491420   6.5493210
  23.3389170  72.1478730   6.7163340  23.4291570  73.6095550   6.3326370
  24.0941990  72.1275400  18.9845700  23.8126260  72.6309000  18.2206520
  24.4761690  71.3297150  18.6187830  30.6957450  71.5428980  19.5626170
  30.5822900  71.8623590  20.4577690  31.5127190  71.9441490  19.2663450
  29.6015600  60.7877960  83.7978360  29.5209650  59.8732570  83.5270070
  29.1880020  61.2845030  83.0918070  27.7333640  62.5656980  85.6787630
  26.9575740  62.0857420  85.9686200  28.3846570  61.8862630  85.5043790
  21.7499470  62.8776790  86.5563390  20.9184350  62.6225500  86.9559900
  22.3580450  62.9487560  87.2921310  31.7541070  66.9717170  84.4586760
  31.2922600  66.2004410  84.7873930  32.5666620  66.9983240  84.9639210
  21.7300730  66.9116880  86.7521410  22.0328770  66.0214620  86.5731630
  22.4744320  67.4687100  86.5243660  20.1591420  57.8378680  80.3405780
  19.2708120  58.1794650  80.2385660  20.4432610  57.6379000  79.4486610
  18.1224430  60.4384330  86.2245480  18.6940540  59.6706530  86.2249120
  18.1225970  60.7373090  85.3152090  27.9804380  69.2575180  84.0790750
  27.3615820  69.7132680  83.5085190  28.8356160  69.4126640  83.6780450
  27.1742630  65.2414170  85.6857790  27.1050910  64.3004110  85.5246920
  27.9362490  65.3315580  86.2580360  19.3649300  55.8468690  88.0114410
  19.1852140  54.9494440  88.2917170  18.9629380  56.3940560  88.6861360
  28.2047800  58.0484550  85.9126720  28.5812620  57.1756430  85.8000390
  28.1067310  58.3843250  85.0217160  22.3352810  56.4210180  81.3744160
  22.4419560  57.3213910  81.6812920  21.4245170  56.3728150  81.0838810
  31.9871920  55.5434990  82.8455060  32.8081540  55.0531560  82.8880540
  32.0206000  56.1332650  83.5986900  19.9835970  58.3429190  86.6196750
  20.6646080  58.6067560  87.2384150  19.6684020  57.5030060  86.9534760
  24.1760540  59.3896550  85.7069340  24.6838760  59.8877520  86.3474360
  24.7073780  58.6131750  85.5308700  36.2771470  57.5601740  89.4098690
  35.5723640  57.9483450  88.8913800  36.5429390  58.2552030  90.0119620
  22.4596640  54.0295110  89.9732760  22.4615080  54.5467500  89.1678660
  21.6300950  53.5525290  89.9502690  28.8467730  64.1414420  81.4722660
  28.2285000  64.6063870  80.9085380  29.3590980  64.8341900  81.8892170
  23.7099490  63.6690290  88.1506260  23.3768870  64.2959210  88.7927330
  23.8866170  64.1952170  87.3707930  32.2233400  57.4835370  85.6182600
  31.5188970  57.7720260  86.1985710  32.5845560  58.2935480  85.2582160
  22.1411970  55.7405070  87.9803210  22.4828780  56.5847120  87.6857080
  21.2027780  55.8888810  88.0968550  22.9218590  65.6371090  89.9655440
  23.5392590  66.3122170  89.6839890  22.0611710  66.0459070  89.8742940
  18.2150930  64.8270950  78.8462290  17.8378910  65.3158050  78.1147190
  18.4724000  65.4996230  79.4768820  33.8396180  67.1010500  87.8810080
  33.1559700  67.7709610  87.8726750  34.3790470  67.2991150  87.1154940
  35.2920320  56.9290160  86.0091810  34.3445230  56.9629140  86.1407240
  35.6170310  57.7429110  86.3941170  25.8239860  53.2287340  84.3047800
  26.1314840  52.6734230  83.5883300  24.8940560  53.3631800  84.1220790
  31.3754920  68.9454630  86.5955260  31.3882080  68.5416920  85.7277520
  30.8230140  69.7201920  86.4916690  32.6700340  65.6670850  81.6845430
  32.5596670  64.7245180  81.8094850  32.6668590  66.0286490  82.5708190
  30.7740360  63.8484470  87.9237870  31.1909150  63.6344580  87.0891330
  31.4980180  64.1057260  88.4946490  28.2120620  61.2936170  81.0407920
  27.2849900  61.2273550  81.2696390  28.3645440  62.2316300  80.9263160
  28.1989700  57.5653170  78.0375080  27.2593370  57.7267130  78.1227540
  28.5172960  58.2838850  77.4911070  34.7202460  62.2471690  88.0154110
  33.8921090  62.3164780  87.5404240  35.3152940  62.8326000  87.5469940
  32.2417910  62.8556470  81.5443170  31.6230330  62.5176020  80.8969470
  32.2242360  62.2116230  82.2522360  31.6844470  59.0341010  88.9608980
  31.2715650  59.8594720  89.2148970  30.9520420  58.4486050  88.7685340
  23.8177260  61.8200910  83.8227650  23.4134260  61.1078160  83.3273550
  23.9040380  61.4754150  84.7115690  24.2858960  65.5068470  85.9866860
  23.9887250  64.9013940  85.3074640  25.2358780  65.5445780  85.8756220
  22.5305880  58.5944120  87.6026690  23.0820470  58.7039460  86.8279940
  23.0449390  58.9681720  88.3181920  32.3744570  69.0800340  89.6489960
  31.8975130  69.8872530  89.4562570  31.6906360  68.4278670  89.8016170
  23.3777390  65.2450160  92.6374660  22.4805920  65.4690130  92.8848060
  23.4030260  65.3685100  91.6886060  30.4182610  62.0943280  78.5515920
  30.8575890  61.2565710  78.4053740  31.1311030  62.7272680  78.6380060
  22.2048610  62.1163480  91.2132030  22.0656380  62.9886280  91.5819430
  21.3229970  61.7736290  91.0679970  28.5277990  67.0339350  82.5197160
  28.9673900  67.7763680  82.1052550  28.4664880  67.2765920  83.4436120
  24.0028960  68.0585180  93.4217180  23.9744390  68.4628130  92.5545610
  23.8393930  67.1295540  93.2588780  20.5181890  60.7145890  81.3234300
  20.3979490  61.4407980  80.7115570  20.2082780  59.9448800  80.8462210
  18.1567260  63.8861030  87.1302940  18.2347680  64.0209800  86.1858660
  18.7708940  63.1776920  87.3231060  19.4014890  65.5861220  83.5409120
  18.9942970  65.7275810  82.6862720  20.2927900  65.3021380  83.3380330
  35.3577030  66.0325130  91.8781360  35.4840090  65.7937010  90.9598540
  35.3998410  65.2009670  92.3503440  29.2193770  69.7353130  90.4476170
  29.7338440  69.6461140  91.2498600  28.3762850  70.0812830  90.7404080
  31.1948170  70.0208470  79.8760170  31.0349310  69.7311410  80.7742000
  31.0294880  69.2448600  79.3405400  23.6736550  69.8007000  81.6531790
  23.4979030  68.8842540  81.4399590  22.8192290  70.1594290  81.8929590
  30.8974300  67.5296030  78.4358170  30.2039460  67.5273320  77.7760450
  31.6397160  67.1055350  78.0052340  30.4624230  69.1558740  82.5106660
  30.9181180  68.3748120  82.8245280  30.8016750  69.8665560  83.0547840
  35.2101040  58.0857590  92.8431100  34.5945310  58.5937260  92.3146560
  34.8897460  57.1855920  92.7857040  18.2126780  64.9275200  89.6697400
  18.3757820  64.4580560  88.8516770  18.6779230  64.4198760  90.3346240
  22.9845550  54.0580960  84.7057970  22.5413700  54.8390500  84.3742490
  23.5430540  54.3810850  85.4128910  27.2715360  56.9249480  90.3093290
  26.8094730  57.1332500  91.1213230  26.8693470  56.1108830  90.0063960
  32.2719870  58.1458430  91.4389950  31.4213460  57.8464180  91.7599020
  32.1121660  58.3900440  90.5273770  29.3669580  59.6460180  93.5388740
  29.6922990  58.8123930  93.1990970  30.1549910  60.1688700  93.6867070
  26.1004370  53.6791660  79.5863800  25.4758550  53.6751530  80.3117110
  26.0134490  52.8122620  79.1899770  25.0221450  54.6028290  86.5647570
  25.3193780  55.5091120  86.4839590  25.5707010  54.1147070  85.9507140
  22.7759770  59.1814530  82.4339220  22.5500690  58.9651700  83.3385840
  21.9952300  59.6142990  82.0885190  30.0057530  59.1877900  81.0329870
  29.4066420  59.9113700  80.8493490  30.5537140  59.1254680  80.2506320
  25.2158980  60.0800110  93.0999490  25.1202580  59.1394840  92.9499890
  26.0590960  60.3015180  92.7047560  28.6122400  57.8241440  83.0633150
  29.0051970  58.1413640  82.2501840  28.9739250  56.9453320  83.1777670
  20.3469520  56.4913780  91.2533270  19.9532910  57.3388990  91.4606050
  19.6587920  55.8540150  91.4441910  17.6486570  54.4142240  85.2863350
  17.3599620  54.9845100  85.9988330  18.3932330  53.9346690  85.6494580
  17.8356800  58.3562360  76.4966070  17.7531470  59.2993120  76.6381060
  17.4839860  58.2137270  75.6178420  29.1977540  60.4147190  87.1583930
  28.4658660  60.9234000  87.5074030  28.8001880  59.5977170  86.8572710
  25.6354930  57.0901390  85.5636420  25.6390990  56.6491340  84.7140960
  26.5306050  57.4118720  85.6708240  21.4857310  56.9727880  84.5230630
  21.1457360  57.4503110  85.2797680  20.7234630  56.5193000  84.1631730
  25.6975080  58.0913470  78.5543180  25.8187900  58.0499950  79.5029000
  25.3123590  58.9537620  78.3989910  29.6603450  55.8680870  86.5706870
  29.6776190  56.3189520  87.4148720  29.4119030  54.9686510  86.7840310
  24.7096580  60.4014610  77.9526480  24.1413480  59.9532860  77.3262390
  25.4185580  60.7607390  77.4191630  33.0874200  53.2813050  92.4093250
  33.4119970  52.5502710  92.9351230  33.1230710  52.9626690  91.5074240
  19.7865760  64.3026630  91.8293210  19.4020550  63.6620300  92.4276170
  20.0977950  65.0062750  92.3987940  25.9362900  61.1503170  87.3101830
  26.3033030  60.6761740  88.0563170  25.7467960  62.0244740  87.6510170
  18.8003390  55.8946860  83.4395300  18.5150310  55.5302530  84.2773920
  18.7382250  55.1627320  82.8258440  23.7262270  60.1911810  89.6286040
  23.4219340  61.0703790  89.8536400  24.6808730  60.2511600  89.6643480
  22.2544060  64.3972800  80.2252890  21.4806320  63.8570420  80.0651610
  22.9838690  63.8779410  79.8870650  33.0132040  63.3938160  86.0179280
  33.7331160  63.8893450  85.6275390  32.8113860  62.7156050  85.3733150
  28.4741980  54.7876120  80.1608670  27.6606590  54.2889290  80.0853980
  28.2803930  55.6274370  79.7445020  28.3950840  63.4647220  91.9048280
  28.3288150  62.5442890  91.6505870  27.7655980  63.5622660  92.6192920
  31.1890370  59.1595770  78.4570830  32.0769990  59.4713000  78.2822170
  31.1595460  58.2868020  78.0651410  22.2981460  64.0653180  83.8631700
  22.8160130  63.2621440  83.8088590  21.8465480  64.0032320  84.7048530
  27.1850960  65.3319460  79.1359000  27.5266660  66.0761690  78.6402320
  26.3563670  65.6450580  79.4983830  19.7826000  61.0314550  90.7757400
  19.4240940  61.6968400  91.3630740  19.4880560  60.1998100  91.1470020
  22.9839120  61.4898790  93.6596950  22.6839260  61.6355970  92.7624770
  23.7550360  60.9304080  93.5670340  28.3267570  66.2867790  91.6552080
  28.3412110  65.3548750  91.4370990  27.6192670  66.3727550  92.2941850
  33.4604640  60.4707610  77.9250690  33.3768360  60.9021830  77.0747130
  34.1798830  60.9305960  78.3577510  34.5378780  62.9275130  91.0020660
  33.8126970  63.5203910  90.8050050  35.0654240  62.9198670  90.2034030
  34.4891890  67.3249870  80.6532820  33.8468050  66.6705490  80.9276540
  34.1022550  67.7304960  79.8773490  30.0678370  64.6535300  84.5004510
  30.4202190  64.0563430  83.8405880  29.1840700  64.3279530  84.6712760
  26.1541650  65.4132990  81.9074920  26.8412780  65.9602200  82.2882510
  25.3674070  65.9573720  81.9424530  18.2934050  61.0305810  77.3992000
  19.1628900  61.3130610  77.6827920  17.8024370  61.8441680  77.2840810
  25.4568860  62.4179020  81.5200280  25.9131640  63.2284270  81.7460470
  25.1057070  62.1002160  82.3518770  27.7601470  67.9285360  88.7492580
  28.4043690  68.1344740  89.4266000  28.1230910  67.1673760  88.2963430
  21.3580640  52.7616670  81.9922800  21.2295270  52.7534570  82.9407720
  20.5342660  53.0999760  81.6413810  29.0333550  65.9317710  87.4670030
  29.6755780  65.2310870  87.5802200  29.5582900  66.7116150  87.2866920
  32.8789270  66.2166330  77.1909170  32.6526850  65.4996770  77.7833810
  32.4885470  65.9678770  76.3530920  30.8071170  66.7312610  90.6706090
  31.1427410  67.3179300  91.3484010  29.8871510  66.6005320  90.9003880
  18.6605300  70.2433190  77.9653630  19.0202940  70.8422530  77.3110900
  18.5197640  70.7893080  78.7388660  18.3574570  54.5207790  91.4529500
  17.6433090  54.7204710  92.0582110  18.7769610  53.7447360  91.8244300
  32.4605520  64.1338270  78.8523330  32.1727220  64.5950960  79.6401210
  33.2557690  63.6736040  79.1207550  18.6447160  68.5088050  92.4396030
  18.7538280  67.5682790  92.2991420  17.9927720  68.7742800  91.7909760
  24.6773920  67.6264390  78.7827300  24.6684020  68.3594080  78.1671810
  23.7572280  67.3795970  78.8754260  20.2780560  62.8479280  79.5274060
  19.6708510  63.5878180  79.5369360  20.7529910  62.9378640  78.7012260
  29.8513350  57.0130100  89.2030950  30.2194170  56.1925310  89.5310520
  28.9911550  57.0731990  89.6186600  33.2175380  55.9687040  80.0118510
  32.5888540  56.0732710  79.2976740  32.7227300  56.1883820  80.8012390
  27.6633520  67.6892630  77.4452490  27.7645500  67.4856620  76.5154470
  26.7635260  67.4350910  77.6500270  25.1859410  58.2472990  81.4276390
  24.4775560  58.7159330  81.8690000  25.4703890  57.5895000  82.0621580
  26.8115340  59.6669690  89.4268920  27.3100590  60.1415510  90.0920770
  26.9538290  58.7433210  89.6338950  29.2174840  54.9723650  82.8672180
  29.0942620  54.9909780  81.9181690  30.1659400  55.0202590  82.9870580
  26.3051630  70.2078950  82.1400160  26.5593130  70.1700340  81.2179530
  25.3564110  70.0812280  82.1328410  23.3894430  56.5558070  78.8027100
  24.2384960  56.9928220  78.7367290  23.0225700  56.8678330  79.6299160
  34.0182200  55.8837650  90.2697310  33.5155800  56.6243050  90.6091120
  34.8338860  56.2721650  89.9534100  32.3104210  61.1270830  83.7158670
  31.3694350  61.1421060  83.8906360  32.6248280  60.3406790  84.1618970
  22.2885850  62.8090430  77.2762630  23.0549120  62.6971790  77.8388060
  22.3660540  62.1128400  76.6239400  20.9832610  60.2415500  77.9595520
  21.0636200  59.2943010  78.0712920  21.8752360  60.5722380  78.0656180
  34.3129790  68.2979680  85.3912930  34.4377210  69.1210850  85.8636740
  35.1795350  68.0870410  85.0437080  21.7847320  70.3910890  85.0630060
  22.5209800  69.8426350  85.3338630  22.1688240  71.2566900  84.9236050
  18.6692800  66.4584460  80.9371570  17.7432580  66.7005600  80.9276980
  19.1349230  67.2858720  80.8156320  24.8949630  69.5641200  76.8855630
  25.6878240  69.8530030  76.4337420  24.3753980  69.1333370  76.2068110
  31.0570600  69.4117120  92.8100460  32.0092350  69.3275140  92.7600700
  30.9098820  70.0758830  93.4834250  33.9479800  68.7911330  78.3092370
  33.6621310  68.3776470  77.4946550  33.7499350  69.7199040  78.1892890
  18.5103410  62.0630420  93.1951690  19.0142430  61.4837700  93.7667920
  17.7710830  62.3470650  93.7328060  25.4127030  64.7844610  76.7497980
  25.3077670  64.1696960  77.4759360  25.2451250  64.2610500  75.9660990
  25.5641350  63.4701410  92.7287210  24.7987020  64.0386410  92.6441880
  25.7457310  63.1777620  91.8355440  28.6529760  63.8464640  77.3539970
  28.1039860  64.2933940  77.9982710  29.2749020  63.3413890  77.8777640
  32.7064700  65.2006740  93.2862230  33.4474170  65.5382500  92.7829690
  31.9437380  65.3698800  92.7332000  24.3204880  62.8055560  79.2505270
  24.7421300  62.6395430  80.0936660  24.4455720  61.9955790  78.7560410
  22.4832300  58.7852110  92.0576250  21.9528760  58.2943060  91.4299590
  23.1520370  59.2136310  91.5234180  26.8332520  61.8293170  76.4982370
  27.3538180  61.1142190  76.1323520  27.4800920  62.4679040  76.7982880
  31.3810360  63.2521570  91.8217440  31.7951380  63.4066650  92.6707860
  30.4461360  63.3776790  91.9843220  31.8532530  60.5917730  93.8256590
  32.4353300  59.8370050  93.7377070  32.0294300  61.1225170  93.0488070
  22.9704600  55.7514480  92.1373540  22.8761470  55.1335230  91.4124410
  22.3901990  56.4780770  91.9103450  25.7366040  54.3087720  89.1700930
  25.2883340  54.3311980  88.3246480  25.1031240  53.9106740  89.7671230
  26.1425590  63.2042050  89.7913370  26.5613700  64.0474780  89.6189610
  25.2234220  63.3414090  89.5620150  28.4789490  60.9358230  91.1751210
  28.5985700  60.3399370  91.9146050  29.3383490  60.9727920  90.7552510
  30.8177390  61.4895420  89.7513720  30.2912610  62.0138040  89.1478860
  31.1608730  62.1222810  90.3823450  23.2163780  58.8788790  76.1963430
  23.0152840  58.0156150  76.5576770  23.0455830  58.7922150  75.2585030
  23.9933010  69.5095060  90.9071100  23.4554100  70.2341120  90.5879800
  24.2466970  69.0325400  90.1168440  25.2458260  57.4779580  92.4327030
  25.8357950  57.1695430  93.1204850  24.4278500  57.0059330  92.5886930
  30.0651690  57.0945390  92.6660050  29.3767210  56.4326930  92.6010040
  30.7857710  56.6483660  93.1108510  30.6952090  53.6897020  78.7250310
  30.9754380  52.8464920  79.0809730  29.9217820  53.9220130  79.2389060
  22.0146580  55.9789410  76.1841310  22.3172480  55.9856840  75.2760460
  22.7541170  55.6287270  76.6808970  26.8495220  70.7446270  91.1657750
  26.7753920  71.6481410  91.4730120  25.9474060  70.4258170  91.1379820
  25.2331510  54.9224030  77.1697510  24.8853510  54.2448020  76.5899960
  25.4344280  54.4613540  77.9840900  27.3980550  69.9104780  78.7884110
  28.2931340  70.2489750  78.8102870  27.4298180  69.1884190  78.1608390
  21.0376710  65.2831830  77.0171110  21.4751580  65.8261500  77.6728690
  21.5224440  64.4578780  77.0267450  18.2522510  68.0720860  84.4691370
  18.5825520  67.2041920  84.2370010  18.6813510  68.2779380  85.2996330
  22.8484430  66.4029870  82.1293340  22.5479970  66.2794840  83.0297250
  22.7421920  65.5438460  81.7209070  18.7412720  68.9391450  87.2073000
  18.3043710  69.1192250  88.0397150  19.3090400  69.6966070  87.0654720
  34.3774900  68.4408450  91.4950310  33.7776890  68.5001010  90.7514230
  34.5068800  67.5013430  91.6247160  35.6176350  66.1826270  76.8320020
  34.7869310  66.2502920  77.3027250  35.7948180  67.0730390  76.5286880
  35.0732810  62.9273750  79.3354220  35.8351720  63.4970400  79.4413910
  35.0887180  62.3600950  80.1062530  18.5737150  61.4511680  83.5661880
  17.9185990  61.1823320  82.9221580  19.4115100  61.3416160  83.1163860
  36.0792780  63.7823850  84.1796150  36.4501610  62.9991170  83.7732120
  36.7194710  64.4712950  84.0013450  33.0626540  65.1660430  89.5926470
  32.2486380  65.5957590  89.8552260  33.4700740  65.7778840  88.9795520
  31.5227590  56.2452970  77.7880370  31.9412470  56.0583950  76.9477030
  31.2163650  55.3932020  78.0983300  35.0217320  61.1577110  81.4856170
  34.6460920  60.3905040  81.0537460  34.2920440  61.5399810  81.9731100
  19.6113080  61.8364250  88.1065220  19.9786120  61.7491650  88.9861240
  19.0423900  61.0730800  88.0072080  34.4116940  60.3048630  91.1195690
  34.1803030  60.0761380  90.2193640  34.6721490  61.2248180  91.0740580
  19.1629080  58.7473340  92.0123640  18.2685130  58.7140100  92.3517350
  19.7026630  58.9460130  92.7774890  17.7875230  58.6610610  79.5087210
  16.8839310  58.9240810  79.3338870  18.2715850  58.9321780  78.7287170
  34.2968280  59.3834600  84.7863410  34.8205760  58.8897250  84.1553580
  34.8827700  59.5184960  85.5310980  34.4758000  59.4674470  88.3082960
  33.5260710  59.4338010  88.4227950  34.6571010  60.3774580  88.0732730
  20.3302440  57.7176150  77.4181590  21.0394140  57.2959370  76.9328870
  19.6142380  57.7851380  76.7864940  19.9776600  53.7715480  76.4584240
  20.7004730  54.3124420  76.7765460  20.2501120  53.4978900  75.5825780
  33.7868250  58.6407950  80.7255820  34.2827370  58.4078820  81.5104700
  33.5884320  57.8019790  80.3093460  19.6668790  53.0221670  86.3606860
  20.3144980  52.4719050  85.9202020  20.0870630  53.2764820  87.1822670
  35.2155410  57.2768900  83.2593500  35.1054690  57.1224940  84.1975770
  35.9763000  56.7489840  83.0168910  33.5621130  53.2163030  89.7176500
  34.1993350  53.8297170  90.0835690  33.7096020  53.2523690  88.7725730
  33.1202590  69.9179030  83.1194740  33.7161660  69.5963600  82.4429160
  33.3780740  69.4450850  83.9108010  19.4200790  53.1777340  89.1032180
  19.0715610  53.6341160  89.8690360  19.0888490  52.2834470  89.1854610
  24.7271190  67.9056530  88.8695090  24.4862550  68.1731090  87.9825610
  25.6673830  68.0762260  88.9245950  26.9325610  54.3689220  92.6251600
  26.8714500  54.9611050  93.3747010  27.8725990  54.2615180  92.4801860
  29.5700170  54.0259280  92.2643890  30.1840580  54.3438570  91.6024970
  30.1149730  53.5407870  92.8839750  35.9875350  69.9250910  89.6705730
  35.4933630  70.3219780  88.9532860  35.3788640  69.3000120  90.0643010
  20.0921430  52.7053540  92.3782950  20.6404420  52.5241590  91.6149060
  20.1576740  51.9147650  92.9139260  20.8653190  69.2959190  90.3883150
  20.2713510  69.1643890  91.1273190  20.8577030  68.4597330  89.9225250
  30.3108210  52.5891420  88.5913180  29.4368050  52.9226530  88.3886110
  30.2018960  52.1164600  89.4165050  31.2180190  54.7962290  89.9754900
  30.8893550  53.9814050  89.5956630  32.1662490  54.7532100  89.8520590
  33.6714800  70.5674330  86.9492470  33.2117770  71.3190140  86.5750490
  33.0427260  69.8480800  86.8907270  20.4965420  66.6617570  89.3391190
  19.7699480  66.0422860  89.2717140  20.5574570  67.0558180  88.4689270
  24.1010520  68.8762570  86.1240600  24.6175540  68.2649930  85.5988860
  24.7507900  69.3791350  86.6151610  26.8406020  69.7671060  86.9509580
  27.1283830  69.5125360  86.0742590  27.3529240  69.2148420  87.5415150
  28.0583030  53.5061260  87.5306090  27.2754820  53.9806760  87.8102850
  27.7645960  52.6016090  87.4219270  32.6104100  54.2084360  85.5755180
  33.0512190  54.1529460  84.7276780  32.3411690  55.1242370  85.6465360
  34.4742670  53.8399600  83.5864000  34.4131070  52.8960820  83.4395020
  35.2534700  53.9479690  84.1317460  18.7795420  69.9791960  82.5487950
  18.6117460  69.3462640  83.2469840  17.9129930  70.1851360  82.1982140
  19.4023440  53.8108740  80.0519810  20.1602800  53.9237620  79.4783840
  18.9400610  54.6477940  80.0063240  25.9437250  55.9248010  83.0422120
  25.1311760  55.5504900  82.7018000  26.4478890  55.1693090  83.3443310
  30.4462230  52.5890460  84.2805190  31.0491600  53.1610670  84.7553710
  29.7055220  53.1529900  84.0579090  33.5896830  52.9912020  79.5545470
  33.7847460  53.8895470  79.8212900  32.8026700  52.7599100  80.0478420
  20.3858120  68.6725190  79.9938090  19.8605740  69.0533220  79.2900050
  20.3102700  69.2975960  80.7147800  21.7748590  54.3372790  78.5921780
  22.3041350  53.5502590  78.4629730  22.4076910  55.0163980  78.8257310
  23.9686430  54.0747930  81.6467170  23.3389170  53.3735240  81.8137300
  23.4291570  54.8352060  81.4300330  35.1423440  70.2312730  81.3152030
  35.3175630  69.5450470  80.6712950  34.4445010  70.7559780  80.9228700
  22.9851090  70.6207570  78.8687340  23.7169910  70.3366850  78.3211230
  23.2444760  70.3820850  79.7586720  22.1465880  66.7372300  78.8733670
  21.5174760  67.2057400  79.4219500  22.2613710  65.8921520  79.3079860
  27.7333640  62.5656980  66.9044140  26.9575740  62.0857420  67.1942710
  28.3846570  61.8862630  66.7300300  21.7499470  62.8776790  67.7819900
  20.9184350  62.6225500  68.1816410  22.3580450  62.9487560  68.5177820
  31.7541070  66.9717170  65.6843270  31.2922600  66.2004410  66.0130440
  32.5666620  66.9983240  66.1895720  21.7300730  66.9116880  67.9777920
  22.0328770  66.0214620  67.7988140  22.4744320  67.4687100  67.7500170
  18.1224430  60.4384330  67.4501990  18.6940540  59.6706530  67.4505630
  18.1225970  60.7373090  66.5408600  27.9804380  69.2575180  65.3047260
  27.3615820  69.7132680  64.7341700  28.8356160  69.4126640  64.9036960
  27.1742630  65.2414170  66.9114300  27.1050910  64.3004110  66.7503430
  27.9362490  65.3315580  67.4836870  19.3649300  55.8468690  69.2370920
  19.1852140  54.9494440  69.5173680  18.9629380  56.3940560  69.9117870
  19.9835970  58.3429190  67.8453260  20.6646080  58.6067560  68.4640660
  19.6684020  57.5030060  68.1791270  24.1760540  59.3896550  66.9325850
  24.6838760  59.8877520  67.5730870  24.7073780  58.6131750  66.7565210
  22.4596640  54.0295110  71.1989270  22.4615080  54.5467500  70.3935170
  21.6300950  53.5525290  71.1759200  28.8467730  64.1414420  62.6979170
  28.2285000  64.6063870  62.1341890  29.3590980  64.8341900  63.1148680
  23.7099490  63.6690290  69.3762770  23.3768870  64.2959210  70.0183840
  23.8866170  64.1952170  68.5964440  22.1411970  55.7405070  69.2059720
  22.4828780  56.5847120  68.9113590  21.2027780  55.8888810  69.3225060
  22.9218590  65.6371090  71.1911950  23.5392590  66.3122170  70.9096400
  22.0611710  66.0459070  71.0999450  33.8396180  67.1010500  69.1066590
  33.1559700  67.7709610  69.0983260  34.3790470  67.2991150  68.3411450
  31.3754920  68.9454630  67.8211770  31.3882080  68.5416920  66.9534030
  30.8230140  69.7201920  67.7173200  30.7740360  63.8484470  69.1494380
  31.1909150  63.6344580  68.3147840  31.4980180  64.1057260  69.7203000
  23.8177260  61.8200910  65.0484160  23.4134260  61.1078160  64.5530060
  23.9040380  61.4754150  65.9372200  24.2858960  65.5068470  67.2123370
  23.9887250  64.9013940  66.5331150  25.2358780  65.5445780  67.1012730
  22.5305880  58.5944120  68.8283200  23.0820470  58.7039460  68.0536450
  23.0449390  58.9681720  69.5438430  32.3744570  69.0800340  70.8746470
  31.8975130  69.8872530  70.6819080  31.6906360  68.4278670  71.0272680
  23.3777390  65.2450160  73.8631170  22.4805920  65.4690130  74.1104570
  23.4030260  65.3685100  72.9142570  22.2048610  62.1163480  72.4388540
  22.0656380  62.9886280  72.8075940  21.3229970  61.7736290  72.2936480
  28.5277990  67.0339350  63.7453670  28.9673900  67.7763680  63.3309060
  28.4664880  67.2765920  64.6692630  24.0028960  68.0585180  74.6473690
  23.9744390  68.4628130  73.7802120  23.8393930  67.1295540  74.4845290
  35.9543780  68.8412280  75.9437860  36.4303500  69.3195170  76.6226940
  36.5750940  68.7729770  75.2183360  18.1567260  63.8861030  68.3559450
  18.2347680  64.0209800  67.4115170  18.7708940  63.1776920  68.5487570
  19.4014890  65.5861220  64.7665630  18.9942970  65.7275810  63.9119230
  20.2927900  65.3021380  64.5636840  35.3577030  66.0325130  73.1037870
  35.4840090  65.7937010  72.1855050  35.3998410  65.2009670  73.5759950
  29.2193770  69.7353130  71.6732680  29.7338440  69.6461140  72.4755110
  28.3762850  70.0812830  71.9660590  31.1948170  70.0208470  61.1016680
  31.0349310  69.7311410  61.9998510  31.0294880  69.2448600  60.5661910
  23.6736550  69.8007000  62.8788300  23.4979030  68.8842540  62.6656100
  22.8192290  70.1594290  63.1186100  30.8974300  67.5296030  59.6614680
  30.2039460  67.5273320  59.0016960  31.6397160  67.1055350  59.2308850
  30.4624230  69.1558740  63.7363170  30.9181180  68.3748120  64.0501790
  30.8016750  69.8665560  64.2804350  18.2126780  64.9275200  70.8953910
  18.3757820  64.4580560  70.0773280  18.6779230  64.4198760  71.5602750
  27.2715360  56.9249480  71.5349800  26.8094730  57.1332500  72.3469740
  26.8693470  56.1108830  71.2320470  25.2158980  60.0800110  74.3256000
  25.1202580  59.1394840  74.1756400  26.0590960  60.3015180  73.9304070
  20.3469520  56.4913780  72.4789780  19.9532910  57.3388990  72.6862560
  19.6587920  55.8540150  72.6698420  26.9214570  56.5748750  75.5486520
  26.2312890  56.3820950  76.1832610  27.6646870  56.8583390  76.0810820
  17.6486570  54.4142240  66.5119860  17.3599620  54.9845100  67.2244840
  18.3932330  53.9346690  66.8751090  33.0874200  53.2813050  73.6349760
  33.4119970  52.5502710  74.1607740  33.1230710  52.9626690  72.7330750
  19.7865760  64.3026630  73.0549720  19.4020550  63.6620300  73.6532680
  20.0977950  65.0062750  73.6244450  25.9362900  61.1503170  68.5358340
  26.3033030  60.6761740  69.2819680  25.7467960  62.0244740  68.8766680
  23.7262270  60.1911810  70.8542550  23.4219340  61.0703790  71.0792910
  24.6808730  60.2511600  70.8899990  22.2981460  64.0653180  65.0888210
  22.8160130  63.2621440  65.0345100  21.8465480  64.0032320  65.9305040
  27.1850960  65.3319460  60.3615510  27.5266660  66.0761690  59.8658830
  26.3563670  65.6450580  60.7240340  19.7826000  61.0314550  72.0013910
  19.4240940  61.6968400  72.5887250  19.4880560  60.1998100  72.3726530
  22.9839120  61.4898790  74.8853460  22.6839260  61.6355970  73.9881280
  23.7550360  60.9304080  74.7926850  28.3267570  66.2867790  72.8808590
  28.3412110  65.3548750  72.6627500  27.6192670  66.3727550  73.5198360
  34.5378780  62.9275130  72.2277170  33.8126970  63.5203910  72.0306560
  35.0654240  62.9198670  71.4290540  30.0678370  64.6535300  65.7261020
  30.4202190  64.0563430  65.0662390  29.1840700  64.3279530  65.8969270
  26.1541650  65.4132990  63.1331430  26.8412780  65.9602200  63.5139020
  25.3674070  65.9573720  63.1681040  27.7601470  67.9285360  69.9749090
  28.4043690  68.1344740  70.6522510  28.1230910  67.1673760  69.5219940
  29.0333550  65.9317710  68.6926540  29.6755780  65.2310870  68.8058710
  29.5582900  66.7116150  68.5123430  30.8071170  66.7312610  71.8962600
  31.1427410  67.3179300  72.5740520  29.8871510  66.6005320  72.1260390
  18.6605300  70.2433190  59.1910140  19.0202940  70.8422530  58.5367410
  18.5197640  70.7893080  59.9645170  18.3574570  54.5207790  72.6786010
  17.6433090  54.7204710  73.2838620  18.7769610  53.7447360  73.0500810
  18.6447160  68.5088050  73.6652540  18.7538280  67.5682790  73.5247930
  17.9927720  68.7742800  73.0166270  26.6359750  66.7803940  75.0650660
  26.3156620  66.0613180  75.6096350  25.9618110  67.4559010  75.1386720
  24.6773920  67.6264390  60.0083810  24.6684020  68.3594080  59.3928320
  23.7572280  67.3795970  60.1010770  27.6633520  67.6892630  58.6709000
  27.7645500  67.4856620  57.7410980  26.7635260  67.4350910  58.8756780
  26.8115340  59.6669690  70.6525430  27.3100590  60.1415510  71.3177280
  26.9538290  58.7433210  70.8595460  26.3051630  70.2078950  63.3656670
  26.5593130  70.1700340  62.4436040  25.3564110  70.0812280  63.3584920
  34.3129790  68.2979680  66.6169440  34.4377210  69.1210850  67.0893250
  35.1795350  68.0870410  66.2693590  21.7847320  70.3910890  66.2886570
  22.5209800  69.8426350  66.5595140  22.1688240  71.2566900  66.1492560
  18.6692800  66.4584460  62.1628080  17.7432580  66.7005600  62.1533490
  19.1349230  67.2858720  62.0412830  20.7905600  69.5756960  75.4772150
  21.5918330  69.8969010  75.8907550  20.2757420  69.2152540  76.1992060
  24.8949630  69.5641200  58.1112140  25.6878240  69.8530030  57.6593930
  24.3753980  69.1333370  57.4324620  29.6270230  65.6836830  75.4247560
  29.0208390  65.7068430  74.6843310  29.3224340  64.9519870  75.9614810
  31.0570600  69.4117120  74.0356970  32.0092350  69.3275140  73.9857210
  30.9098820  70.0758830  74.7090760  18.5103410  62.0630420  74.4208200
  19.0142430  61.4837700  74.9924430  17.7710830  62.3470650  74.9584570
  25.4127030  64.7844610  57.9754490  25.3077670  64.1696960  58.7015870
  25.2451250  64.2610500  57.1917500  25.5641350  63.4701410  73.9543720
  24.7987020  64.0386410  73.8698390  25.7457310  63.1777620  73.0611950
  28.6529760  63.8464640  58.5796480  28.1039860  64.2933940  59.2239220
  29.2749020  63.3413890  59.1034150  32.7064700  65.2006740  74.5118740
  33.4474170  65.5382500  74.0086200  31.9437380  65.3698800  73.9588510
  20.5426490  60.2060010  75.3158270  20.5831830  59.9073880  76.2243500
  21.3971990  60.6067620  75.1565790  22.4832300  58.7852110  73.2832760
  21.9528760  58.2943060  72.6556100  23.1520370  59.2136310  72.7490690
  22.9704600  55.7514480  73.3630050  22.8761470  55.1335230  72.6380920
  22.3901990  56.4780770  73.1359960  25.7366040  54.3087720  70.3957440
  25.2883340  54.3311980  69.5502990  25.1031240  53.9106740  70.9927740
  26.1425590  63.2042050  71.0169880  26.5613700  64.0474780  70.8446120
  25.2234220  63.3414090  70.7876660  23.9933010  69.5095060  72.1327610
  23.4554100  70.2341120  71.8136310  24.2466970  69.0325400  71.3424950
  25.2458260  57.4779580  73.6583540  25.8357950  57.1695430  74.3461360
  24.4278500  57.0059330  73.8143440  26.8495220  70.7446270  72.3914260
  26.7753920  71.6481410  72.6986630  25.9474060  70.4258170  72.3636330
  27.3980550  69.9104780  60.0140620  28.2931340  70.2489750  60.0359380
  27.4298180  69.1884190  59.3864900  21.0376710  65.2831830  58.2427620
  21.4751580  65.8261500  58.8985200  21.5224440  64.4578780  58.2523960
  18.2522510  68.0720860  65.6947880  18.5825520  67.2041920  65.4626520
  18.6813510  68.2779380  66.5252840  22.8484430  66.4029870  63.3549850
  22.5479970  66.2794840  64.2553760  22.7421920  65.5438460  62.9465580
  18.7412720  68.9391450  68.4329510  18.3043710  69.1192250  69.2653660
  19.3090400  69.6966070  68.2911230  34.3774900  68.4408450  72.7206820
  33.7776890  68.5001010  71.9770740  34.5068800  67.5013430  72.8503670
  18.5737150  61.4511680  64.7918390  17.9185990  61.1823320  64.1478090
  19.4115100  61.3416160  64.3420370  33.0626540  65.1660430  70.8182980
  32.2486380  65.5957590  71.0808770  33.4700740  65.7778840  70.2052030
  19.6113080  61.8364250  69.3321730  19.9786120  61.7491650  70.2117750
  19.0423900  61.0730800  69.2328590  19.1629080  58.7473340  73.2380150
  18.2685130  58.7140100  73.5773860  19.7026630  58.9460130  74.0031400
  33.1202590  69.9179030  64.3451250  33.7161660  69.5963600  63.6685670
  33.3780740  69.4450850  65.1364520  19.4200790  53.1777340  70.3288690
  19.0715610  53.6341160  71.0946870  19.0888490  52.2834470  70.4111120
  21.0265160  66.3496940  74.4941880  20.9834790  65.9789850  75.3756340
  21.1576170  67.2874510  74.6343700  24.7271190  67.9056530  70.0951600
  24.4862550  68.1731090  69.2082120  25.6673830  68.0762260  70.1502460
  26.9325610  54.3689220  73.8508110  26.8714500  54.9611050  74.6003520
  27.8725990  54.2615180  73.7058370  29.5700170  54.0259280  73.4900400
  30.1840580  54.3438570  72.8281480  30.1149730  53.5407870  74.1096260
  35.9875350  69.9250910  70.8962240  35.4933630  70.3219780  70.1789370
  35.3788640  69.3000120  71.2899520  20.0921430  52.7053540  73.6039460
  20.6404420  52.5241590  72.8405570  20.1576740  51.9147650  74.1395770
  20.8653190  69.2959190  71.6139660  20.2713510  69.1643890  72.3529700
  20.8577030  68.4597330  71.1481760  33.6714800  70.5674330  68.1748980
  33.2117770  71.3190140  67.8007000  33.0427260  69.8480800  68.1163780
  20.4965420  66.6617570  70.5647700  19.7699480  66.0422860  70.4973650
  20.5574570  67.0558180  69.6945780  24.1010520  68.8762570  67.3497110
  24.6175540  68.2649930  66.8245370  24.7507900  69.3791350  67.8408120
  26.8406020  69.7671060  68.1766090  27.1283830  69.5125360  67.2999100
  27.3529240  69.2148420  68.7671660  18.7795420  69.9791960  63.7744460
  18.6117460  69.3462640  64.4726350  17.9129930  70.1851360  63.4238650
  20.3858120  68.6725190  61.2194600  19.8605740  69.0533220  60.5156560
  20.3102700  69.2975960  61.9404310  26.9078380  70.6887160  75.5434290
  27.8345690  70.4531430  75.5870250  26.8928810  71.5159160  75.0620320
  35.1423440  70.2312730  62.5408540  35.3175630  69.5450470  61.8969460
  34.4445010  70.7559780  62.1485210  24.0941990  53.3531910  75.3076170
  23.8126260  53.8565510  74.5436990  24.4761690  52.5553660  74.9418300
  22.9851090  70.6207570  60.0943850  23.7169910  70.3366850  59.5467740
  23.2444760  70.3820850  60.9843230  22.1465880  66.7372300  60.0990180
  21.5174760  67.2057400  60.6476010  22.2613710  65.8921520  60.5336370
  30.6957450  52.7685490  75.8856640  30.5822900  53.0880100  76.7808160
  31.5127190  53.1698000  75.5893920  33.4755940  69.9157020  75.3675330
  34.2681260  69.4206250  75.1601290  33.7689090  70.5947160  75.9750940
  29.6015600  60.7877960  46.2491380  29.5209650  59.8732570  45.9783090
  29.1880020  61.2845030  45.5431090  27.7333640  62.5656980  48.1300650
  26.9575740  62.0857420  48.4199220  28.3846570  61.8862630  47.9556810
  21.7499470  62.8776790  49.0076410  20.9184350  62.6225500  49.4072920
  22.3580450  62.9487560  49.7434330  31.7541070  66.9717170  46.9099780
  31.2922600  66.2004410  47.2386950  32.5666620  66.9983240  47.4152230
  21.7300730  66.9116880  49.2034430  22.0328770  66.0214620  49.0244650
  22.4744320  67.4687100  48.9756680  20.1591420  57.8378680  42.7918800
  19.2708120  58.1794650  42.6898680  20.4432610  57.6379000  41.8999630
  18.1224430  60.4384330  48.6758500  18.6940540  59.6706530  48.6762140
  18.1225970  60.7373090  47.7665110  27.9804380  69.2575180  46.5303770
  27.3615820  69.7132680  45.9598210  28.8356160  69.4126640  46.1293470
  27.1742630  65.2414170  48.1370810  27.1050910  64.3004110  47.9759940
  27.9362490  65.3315580  48.7093380  19.3649300  55.8468690  50.4627430
  19.1852140  54.9494440  50.7430190  18.9629380  56.3940560  51.1374380
  22.3352810  56.4210180  43.8257180  22.4419560  57.3213910  44.1325940
  21.4245170  56.3728150  43.5351830  19.9835970  58.3429190  49.0709770
  20.6646080  58.6067560  49.6897170  19.6684020  57.5030060  49.4047780
  24.1760540  59.3896550  48.1582360  24.6838760  59.8877520  48.7987380
  24.7073780  58.6131750  47.9821720  28.8467730  64.1414420  43.9235680
  28.2285000  64.6063870  43.3598400  29.3590980  64.8341900  44.3405190
  23.7099490  63.6690290  50.6019280  23.3768870  64.2959210  51.2440350
  23.8866170  64.1952170  49.8220950  22.9218590  65.6371090  52.4168460
  23.5392590  66.3122170  52.1352910  22.0611710  66.0459070  52.3255960
  18.2150930  64.8270950  41.2975310  17.8378910  65.3158050  40.5660210
  18.4724000  65.4996230  41.9281840  33.8396180  67.1010500  50.3323100
  33.1559700  67.7709610  50.3239770  34.3790470  67.2991150  49.5667960
  31.3754920  68.9454630  49.0468280  31.3882080  68.5416920  48.1790540
  30.8230140  69.7201920  48.9429710  32.6700340  65.6670850  44.1358450
  32.5596670  64.7245180  44.2607870  32.6668590  66.0286490  45.0221210
  28.2120620  61.2936170  43.4920940  27.2849900  61.2273550  43.7209410
  28.3645440  62.2316300  43.3776180  28.1989700  57.5653170  40.4888100
  27.2593370  57.7267130  40.5740560  28.5172960  58.2838850  39.9424090
  32.2417910  62.8556470  43.9956190  31.6230330  62.5176020  43.3482490
  32.2242360  62.2116230  44.7035380  23.8177260  61.8200910  46.2740670
  23.4134260  61.1078160  45.7786570  23.9040380  61.4754150  47.1628710
  24.2858960  65.5068470  48.4379880  23.9887250  64.9013940  47.7587660
  25.2358780  65.5445780  48.3269240  22.5305880  58.5944120  50.0539710
  23.0820470  58.7039460  49.2792960  23.0449390  58.9681720  50.7694940
  32.3744570  69.0800340  52.1002980  31.8975130  69.8872530  51.9075590
  31.6906360  68.4278670  52.2529190  23.3777390  65.2450160  55.0887680
  22.4805920  65.4690130  55.3361080  23.4030260  65.3685100  54.1399080
  30.4182610  62.0943280  41.0028940  30.8575890  61.2565710  40.8566760
  31.1311030  62.7272680  41.0893080  22.2048610  62.1163480  53.6645050
  22.0656380  62.9886280  54.0332450  21.3229970  61.7736290  53.5192990
  28.5277990  67.0339350  44.9710180  28.9673900  67.7763680  44.5565570
  28.4664880  67.2765920  45.8949140  24.0028960  68.0585180  55.8730200
  23.9744390  68.4628130  55.0058630  23.8393930  67.1295540  55.7101800
  20.5181890  60.7145890  43.7747320  20.3979490  61.4407980  43.1628590
  20.2082780  59.9448800  43.2975230  18.1567260  63.8861030  49.5815960
  18.2347680  64.0209800  48.6371680  18.7708940  63.1776920  49.7744080
  19.4014890  65.5861220  45.9922140  18.9942970  65.7275810  45.1375740
  20.2927900  65.3021380  45.7893350  29.2193770  69.7353130  52.8989190
  29.7338440  69.6461140  53.7011620  28.3762850  70.0812830  53.1917100
  31.1948170  70.0208470  42.3273190  31.0349310  69.7311410  43.2255020
  31.0294880  69.2448600  41.7918420  23.6736550  69.8007000  44.1044810
  23.4979030  68.8842540  43.8912610  22.8192290  70.1594290  44.3442610
  30.8974300  67.5296030  40.8871190  30.2039460  67.5273320  40.2273470
  31.6397160  67.1055350  40.4565360  30.4624230  69.1558740  44.9619680
  30.9181180  68.3748120  45.2758300  30.8016750  69.8665560  45.5060860
  18.2126780  64.9275200  52.1210420  18.3757820  64.4580560  51.3029790
  18.6779230  64.4198760  52.7859260  26.1004370  53.6791660  42.0376820
  25.4758550  53.6751530  42.7630130  26.0134490  52.8122620  41.6412790
  22.7759770  59.1814530  44.8852240  22.5500690  58.9651700  45.7898860
  21.9952300  59.6142990  44.5398210  30.0057530  59.1877900  43.4842890
  29.4066420  59.9113700  43.3006510  30.5537140  59.1254680  42.7019340
  17.6486570  54.4142240  47.7376370  17.3599620  54.9845100  48.4501350
  18.3932330  53.9346690  48.1007600  17.8356800  58.3562360  38.9479090
  17.7531470  59.2993120  39.0894080  17.4839860  58.2137270  38.0691440
  29.1977540  60.4147190  49.6096950  28.4658660  60.9234000  49.9587050
  28.8001880  59.5977170  49.3085730  25.6975080  58.0913470  41.0056200
  25.8187900  58.0499950  41.9542020  25.3123590  58.9537620  40.8502930
  24.7096580  60.4014610  40.4039500  24.1413480  59.9532860  39.7775410
  25.4185580  60.7607390  39.8704650  19.7865760  64.3026630  54.2806230
  19.4020550  63.6620300  54.8789190  20.0977950  65.0062750  54.8500960
  25.9362900  61.1503170  49.7614850  26.3033030  60.6761740  50.5076190
  25.7467960  62.0244740  50.1023190  18.8003390  55.8946860  45.8908320
  18.5150310  55.5302530  46.7286940  18.7382250  55.1627320  45.2771460
  23.7262270  60.1911810  52.0799060  23.4219340  61.0703790  52.3049420
  24.6808730  60.2511600  52.1156500  22.2544060  64.3972800  42.6765910
  21.4806320  63.8570420  42.5164630  22.9838690  63.8779410  42.3383670
  33.0132040  63.3938160  48.4692300  33.7331160  63.8893450  48.0788410
  32.8113860  62.7156050  47.8246170  31.1890370  59.1595770  40.9083850
  32.0769990  59.4713000  40.7335190  31.1595460  58.2868020  40.5164430
  22.2981460  64.0653180  46.3144720  22.8160130  63.2621440  46.2601610
  21.8465480  64.0032320  47.1561550  27.1850960  65.3319460  41.5872020
  27.5266660  66.0761690  41.0915340  26.3563670  65.6450580  41.9496850
  19.7826000  61.0314550  53.2270420  19.4240940  61.6968400  53.8143760
  19.4880560  60.1998100  53.5983040  28.3267570  66.2867790  54.1065100
  28.3412110  65.3548750  53.8884010  27.6192670  66.3727550  54.7454870
  34.4891890  67.3249870  43.1045840  33.8468050  66.6705490  43.3789560
  34.1022550  67.7304960  42.3286510  30.0678370  64.6535300  46.9517530
  30.4202190  64.0563430  46.2918900  29.1840700  64.3279530  47.1225780
  26.1541650  65.4132990  44.3587940  26.8412780  65.9602200  44.7395530
  25.3674070  65.9573720  44.3937550  18.2934050  61.0305810  39.8505020
  19.1628900  61.3130610  40.1340940  17.8024370  61.8441680  39.7353830
  25.4568860  62.4179020  43.9713300  25.9131640  63.2284270  44.1973490
  25.1057070  62.1002160  44.8031790  27.7601470  67.9285360  51.2005600
  28.4043690  68.1344740  51.8779020  28.1230910  67.1673760  50.7476450
  21.3580640  52.7616670  44.4435820  21.2295270  52.7534570  45.3920740
  20.5342660  53.0999760  44.0926830  29.0333550  65.9317710  49.9183050
  29.6755780  65.2310870  50.0315220  29.5582900  66.7116150  49.7379940
  32.8789270  66.2166330  39.6422190  32.6526850  65.4996770  40.2346830
  32.4885470  65.9678770  38.8043940  30.8071170  66.7312610  53.1219110
  31.1427410  67.3179300  53.7997030  29.8871510  66.6005320  53.3516900
  18.6605300  70.2433190  40.4166650  19.0202940  70.8422530  39.7623920
  18.5197640  70.7893080  41.1901680  32.4605520  64.1338270  41.3036350
  32.1727220  64.5950960  42.0914230  33.2557690  63.6736040  41.5720570
  18.6447160  68.5088050  54.8909050  18.7538280  67.5682790  54.7504440
  17.9927720  68.7742800  54.2422780  26.6359750  66.7803940  56.2907170
  26.3156620  66.0613180  56.8352860  25.9618110  67.4559010  56.3643230
  24.6773920  67.6264390  41.2340320  24.6684020  68.3594080  40.6184830
  23.7572280  67.3795970  41.3267280  20.2780560  62.8479280  41.9787080
  19.6708510  63.5878180  41.9882380  20.7529910  62.9378640  41.1525280
  27.6633520  67.6892630  39.8965510  27.7645500  67.4856620  38.9667490
  26.7635260  67.4350910  40.1013290  25.1859410  58.2472990  43.8789410
  24.4775560  58.7159330  44.3203020  25.4703890  57.5895000  44.5134600
  26.3051630  70.2078950  44.5913180  26.5593130  70.1700340  43.6692550
  25.3564110  70.0812280  44.5841430  23.3894430  56.5558070  41.2540120
  24.2384960  56.9928220  41.1880310  23.0225700  56.8678330  42.0812180
  32.3104210  61.1270830  46.1671690  31.3694350  61.1421060  46.3419380
  32.6248280  60.3406790  46.6131990  22.2885850  62.8090430  39.7275650
  23.0549120  62.6971790  40.2901080  22.3660540  62.1128400  39.0752420
  20.9832610  60.2415500  40.4108540  21.0636200  59.2943010  40.5225940
  21.8752360  60.5722380  40.5169200  34.3129790  68.2979680  47.8425950
  34.4377210  69.1210850  48.3149760  35.1795350  68.0870410  47.4950100
  21.7847320  70.3910890  47.5143080  22.5209800  69.8426350  47.7851650
  22.1688240  71.2566900  47.3749070  18.6692800  66.4584460  43.3884590
  17.7432580  66.7005600  43.3790000  19.1349230  67.2858720  43.2669340
  20.7905600  69.5756960  56.7028660  21.5918330  69.8969010  57.1164060
  20.2757420  69.2152540  57.4248570  24.8949630  69.5641200  39.3368650
  25.6878240  69.8530030  38.8850440  24.3753980  69.1333370  38.6581130
  29.6270230  65.6836830  56.6504070  29.0208390  65.7068430  55.9099820
  29.3224340  64.9519870  57.1871320  31.0570600  69.4117120  55.2613480
  32.0092350  69.3275140  55.2113720  30.9098820  70.0758830  55.9347270
  33.9479800  68.7911330  40.7605390  33.6621310  68.3776470  39.9459570
  33.7499350  69.7199040  40.6405910  18.5103410  62.0630420  55.6464710
  19.0142430  61.4837700  56.2180940  17.7710830  62.3470650  56.1841080
  25.4127030  64.7844610  39.2011000  25.3077670  64.1696960  39.9272380
  25.2451250  64.2610500  38.4174010  25.5641350  63.4701410  55.1800230
  24.7987020  64.0386410  55.0954900  25.7457310  63.1777620  54.2868460
  28.6529760  63.8464640  39.8052990  28.1039860  64.2933940  40.4495730
  29.2749020  63.3413890  40.3290660  24.3204880  62.8055560  41.7018290
  24.7421300  62.6395430  42.5449680  24.4455720  61.9955790  41.2073430
  26.8332520  61.8293170  38.9495390  27.3538180  61.1142190  38.5836540
  27.4800920  62.4679040  39.2495900  26.1425590  63.2042050  52.2426390
  26.5613700  64.0474780  52.0702630  25.2234220  63.3414090  52.0133170
  23.2163780  58.8788790  38.6476450  23.0152840  58.0156150  39.0089790
  23.0455830  58.7922150  37.7098050  23.9933010  69.5095060  53.3584120
  23.4554100  70.2341120  53.0392820  24.2466970  69.0325400  52.5681460
  22.0146580  55.9789410  38.6354330  22.3172480  55.9856840  37.7273480
  22.7541170  55.6287270  39.1321990  26.8495220  70.7446270  53.6170770
  26.7753920  71.6481410  53.9243140  25.9474060  70.4258170  53.5892840
  25.2331510  54.9224030  39.6210530  24.8853510  54.2448020  39.0412980
  25.4344280  54.4613540  40.4353920  27.3980550  69.9104780  41.2397130
  28.2931340  70.2489750  41.2615890  27.4298180  69.1884190  40.6121410
  21.0376710  65.2831830  39.4684130  21.4751580  65.8261500  40.1241710
  21.5224440  64.4578780  39.4780470  18.2522510  68.0720860  46.9204390
  18.5825520  67.2041920  46.6883030  18.6813510  68.2779380  47.7509350
  22.8484430  66.4029870  44.5806360  22.5479970  66.2794840  45.4810270
  22.7421920  65.5438460  44.1722090  18.7412720  68.9391450  49.6586020
  18.3043710  69.1192250  50.4910170  19.3090400  69.6966070  49.5167740
  34.3774900  68.4408450  53.9463330  33.7776890  68.5001010  53.2027250
  34.5068800  67.5013430  54.0760180  35.6176350  66.1826270  39.2833040
  34.7869310  66.2502920  39.7540270  35.7948180  67.0730390  38.9799900
  35.0732810  62.9273750  41.7867240  35.8351720  63.4970400  41.8926930
  35.0887180  62.3600950  42.5575550  18.5737150  61.4511680  46.0174900
  17.9185990  61.1823320  45.3734600  19.4115100  61.3416160  45.5676880
  36.0792780  63.7823850  46.6309170  36.4501610  62.9991170  46.2245140
  36.7194710  64.4712950  46.4526470  35.1251980  63.2208120  38.9439760
  35.4000820  64.1287000  38.8158980  34.9362720  63.1570650  39.8801750
  19.6113080  61.8364250  50.5578240  19.9786120  61.7491650  51.4374260
  19.0423900  61.0730800  50.4585100  17.7875230  58.6610610  41.9600230
  16.8839310  58.9240810  41.7851890  18.2715850  58.9321780  41.1800190
  20.3302440  57.7176150  39.8694610  21.0394140  57.2959370  39.3841890
  19.6142380  57.7851380  39.2377960  19.9776600  53.7715480  38.9097260
  20.7004730  54.3124420  39.2278480  20.2501120  53.4978900  38.0338800
  19.6668790  53.0221670  48.8119880  20.3144980  52.4719050  48.3715040
  20.0870630  53.2764820  49.6335690  33.1202590  69.9179030  45.5707760
  33.7161660  69.5963600  44.8942180  33.3780740  69.4450850  46.3621030
  19.4200790  53.1777340  51.5545200  19.0715610  53.6341160  52.3203380
  19.0888490  52.2834470  51.6367630  21.0265160  66.3496940  55.7198390
  20.9834790  65.9789850  56.6012850  21.1576170  67.2874510  55.8600210
  24.7271190  67.9056530  51.3208110  24.4862550  68.1731090  50.4338630
  25.6673830  68.0762260  51.3758970  35.9875350  69.9250910  52.1218750
  35.4933630  70.3219780  51.4045880  35.3788640  69.3000120  52.5156030
  20.8653190  69.2959190  52.8396170  20.2713510  69.1643890  53.5786210
  20.8577030  68.4597330  52.3738270  33.6714800  70.5674330  49.4005490
  33.2117770  71.3190140  49.0263510  33.0427260  69.8480800  49.3420290
  20.4965420  66.6617570  51.7904210  19.7699480  66.0422860  51.7230160
  20.5574570  67.0558180  50.9202290  24.1010520  68.8762570  48.5753620
  24.6175540  68.2649930  48.0501880  24.7507900  69.3791350  49.0664630
  26.8406020  69.7671060  49.4022600  27.1283830  69.5125360  48.5255610
  27.3529240  69.2148420  49.9928170  18.7795420  69.9791960  45.0000970
  18.6117460  69.3462640  45.6982860  17.9129930  70.1851360  44.6495160
  19.4023440  53.8108740  42.5032830  20.1602800  53.9237620  41.9296860
  18.9400610  54.6477940  42.4576260  20.3858120  68.6725190  42.4451110
  19.8605740  69.0533220  41.7413070  20.3102700  69.2975960  43.1660820
  21.7748590  54.3372790  41.0434800  22.3041350  53.5502590  40.9142750
  22.4076910  55.0163980  41.2770330  23.9686430  54.0747930  44.0980190
  23.3389170  53.3735240  44.2650320  23.4291570  54.8352060  43.8813350
  26.9078380  70.6887160  56.7690800  27.8345690  70.4531430  56.8126760
  26.8928810  71.5159160  56.2876830  35.1423440  70.2312730  43.7665050
  35.3175630  69.5450470  43.1225970  34.4445010  70.7559780  43.3741720
  22.9851090  70.6207570  41.3200360  23.7169910  70.3366850  40.7724250
  23.2444760  70.3820850  42.2099740  22.1465880  66.7372300  41.3246690
  21.5174760  67.2057400  41.8732520  22.2613710  65.8921520  41.7592880
  29.6015600  60.7877960  27.4747890  29.5209650  59.8732570  27.2039600
  29.1880020  61.2845030  26.7687600  27.7333640  62.5656980  29.3557160
  26.9575740  62.0857420  29.6455730  28.3846570  61.8862630  29.1813320
  21.7499470  62.8776790  30.2332920  20.9184350  62.6225500  30.6329430
  22.3580450  62.9487560  30.9690840  31.7541070  66.9717170  28.1356290
  31.2922600  66.2004410  28.4643460  32.5666620  66.9983240  28.6408740
  21.7300730  66.9116880  30.4290940  22.0328770  66.0214620  30.2501160
  22.4744320  67.4687100  30.2013190  20.1591420  57.8378680  24.0175310
  19.2708120  58.1794650  23.9155190  20.4432610  57.6379000  23.1256140
  18.1224430  60.4384330  29.9015010  18.6940540  59.6706530  29.9018650
  18.1225970  60.7373090  28.9921620  27.9804380  69.2575180  27.7560280
  27.3615820  69.7132680  27.1854720  28.8356160  69.4126640  27.3549980
  27.1742630  65.2414170  29.3627320  27.1050910  64.3004110  29.2016450
  27.9362490  65.3315580  29.9349890  19.3649300  55.8468690  31.6883940
  19.1852140  54.9494440  31.9686700  18.9629380  56.3940560  32.3630890
  28.2047800  58.0484550  29.5896250  28.5812620  57.1756430  29.4769920
  28.1067310  58.3843250  28.6986690  22.3352810  56.4210180  25.0513690
  22.4419560  57.3213910  25.3582450  21.4245170  56.3728150  24.7608340
  31.9871920  55.5434990  26.5224590  32.8081540  55.0531560  26.5650070
  32.0206000  56.1332650  27.2756430  19.9835970  58.3429190  30.2966280
  20.6646080  58.6067560  30.9153680  19.6684020  57.5030060  30.6304290
  24.1760540  59.3896550  29.3838870  24.6838760  59.8877520  30.0243890
  24.7073780  58.6131750  29.2078230  36.2771470  57.5601740  33.0868220
  35.5723640  57.9483450  32.5683330  36.5429390  58.2552030  33.6889150
  22.4596640  54.0295110  33.6502290  22.4615080  54.5467500  32.8448190
  21.6300950  53.5525290  33.6272220  28.8467730  64.1414420  25.1492190
  28.2285000  64.6063870  24.5854910  29.3590980  64.8341900  25.5661700
  23.7099490  63.6690290  31.8275790  23.3768870  64.2959210  32.4696860
  23.8866170  64.1952170  31.0477460  32.2233400  57.4835370  29.2952130
  31.5188970  57.7720260  29.8755240  32.5845560  58.2935480  28.9351690
  22.1411970  55.7405070  31.6572740  22.4828780  56.5847120  31.3626610
  21.2027780  55.8888810  31.7738080  22.9218590  65.6371090  33.6424970
  23.5392590  66.3122170  33.3609420  22.0611710  66.0459070  33.5512470
  18.2150930  64.8270950  22.5231820  17.8378910  65.3158050  21.7916720
  18.4724000  65.4996230  23.1538350  33.8396180  67.1010500  31.5579610
  33.1559700  67.7709610  31.5496280  34.3790470  67.2991150  30.7924470
  35.2920320  56.9290160  29.6861340  34.3445230  56.9629140  29.8176770
  35.6170310  57.7429110  30.0710700  25.8239860  53.2287340  27.9817330
  26.1314840  52.6734230  27.2652830  24.8940560  53.3631800  27.7990320
  31.3754920  68.9454630  30.2724790  31.3882080  68.5416920  29.4047050
  30.8230140  69.7201920  30.1686220  32.6700340  65.6670850  25.3614960
  32.5596670  64.7245180  25.4864380  32.6668590  66.0286490  26.2477720
  30.7740360  63.8484470  31.6007400  31.1909150  63.6344580  30.7660860
  31.4980180  64.1057260  32.1716020  28.2120620  61.2936170  24.7177450
  27.2849900  61.2273550  24.9465920  28.3645440  62.2316300  24.6032690
  28.1989700  57.5653170  21.7144610  27.2593370  57.7267130  21.7997070
  28.5172960  58.2838850  21.1680600  34.7202460  62.2471690  31.6923640
  33.8921090  62.3164780  31.2173770  35.3152940  62.8326000  31.2239470
  32.2417910  62.8556470  25.2212700  31.6230330  62.5176020  24.5739000
  32.2242360  62.2116230  25.9291890  31.6844470  59.0341010  32.6378510
  31.2715650  59.8594720  32.8918500  30.9520420  58.4486050  32.4454870
  23.8177260  61.8200910  27.4997180  23.4134260  61.1078160  27.0043080
  23.9040380  61.4754150  28.3885220  24.2858960  65.5068470  29.6636390
  23.9887250  64.9013940  28.9844170  25.2358780  65.5445780  29.5525750
  22.5305880  58.5944120  31.2796220  23.0820470  58.7039460  30.5049470
  23.0449390  58.9681720  31.9951450  32.3744570  69.0800340  33.3259490
  31.8975130  69.8872530  33.1332100  31.6906360  68.4278670  33.4785700
  23.3777390  65.2450160  36.3144190  22.4805920  65.4690130  36.5617590
  23.4030260  65.3685100  35.3655590  30.4182610  62.0943280  22.2285450
  30.8575890  61.2565710  22.0823270  31.1311030  62.7272680  22.3149590
  22.2048610  62.1163480  34.8901560  22.0656380  62.9886280  35.2588960
  21.3229970  61.7736290  34.7449500  28.5277990  67.0339350  26.1966690
  28.9673900  67.7763680  25.7822080  28.4664880  67.2765920  27.1205650
  24.0028960  68.0585180  37.0986710  23.9744390  68.4628130  36.2315140
  23.8393930  67.1295540  36.9358310  33.9999750  53.3486090  20.5426490
  33.6872410  53.4412920  21.4425560  34.7612220  53.9267120  20.4923920
  20.5181890  60.7145890  25.0003830  20.3979490  61.4407980  24.3885100
  20.2082780  59.9448800  24.5231740  35.9543780  68.8412280  38.3950880
  36.4303500  69.3195170  39.0739960  36.5750940  68.7729770  37.6696380
  18.1567260  63.8861030  30.8072470  18.2347680  64.0209800  29.8628190
  18.7708940  63.1776920  31.0000590  19.4014890  65.5861220  27.2178650
  18.9942970  65.7275810  26.3632250  20.2927900  65.3021380  27.0149860
  35.3577030  66.0325130  35.5550890  35.4840090  65.7937010  34.6368070
  35.3998410  65.2009670  36.0272970  29.2193770  69.7353130  34.1245700
  29.7338440  69.6461140  34.9268130  28.3762850  70.0812830  34.4173610
  31.1948170  70.0208470  23.5529700  31.0349310  69.7311410  24.4511530
  31.0294880  69.2448600  23.0174930  23.6736550  69.8007000  25.3301320
  23.4979030  68.8842540  25.1169120  22.8192290  70.1594290  25.5699120
  30.8974300  67.5296030  22.1127700  30.2039460  67.5273320  21.4529980
  31.6397160  67.1055350  21.6821870  30.4624230  69.1558740  26.1876190
  30.9181180  68.3748120  26.5014810  30.8016750  69.8665560  26.7317370
  18.2126780  64.9275200  33.3466930  18.3757820  64.4580560  32.5286300
  18.6779230  64.4198760  34.0115770  22.9845550  54.0580960  28.3827500
  22.5413700  54.8390500  28.0512020  23.5430540  54.3810850  29.0898440
  27.2715360  56.9249480  33.9862820  26.8094730  57.1332500  34.7982760
  26.8693470  56.1108830  33.6833490  32.2719870  58.1458430  35.1159480
  31.4213460  57.8464180  35.4368550  32.1121660  58.3900440  34.2043300
  29.3669580  59.6460180  37.2158270  29.6922990  58.8123930  36.8760500
  30.1549910  60.1688700  37.3636600  26.1004370  53.6791660  23.2633330
  25.4758550  53.6751530  23.9886640  26.0134490  52.8122620  22.8669300
  25.0221450  54.6028290  30.2417100  25.3193780  55.5091120  30.1609120
  25.5707010  54.1147070  29.6276670  22.7759770  59.1814530  26.1108750
  22.5500690  58.9651700  27.0155370  21.9952300  59.6142990  25.7654720
  30.0057530  59.1877900  24.7099400  29.4066420  59.9113700  24.5263020
  30.5537140  59.1254680  23.9275850  25.2158980  60.0800110  36.7769020
  25.1202580  59.1394840  36.6269420  26.0590960  60.3015180  36.3817090
  28.6122400  57.8241440  26.7402680  29.0051970  58.1413640  25.9271370
  28.9739250  56.9453320  26.8547200  20.3469520  56.4913780  34.9302800
  19.9532910  57.3388990  35.1375580  19.6587920  55.8540150  35.1211440
  26.9214570  56.5748750  37.9999540  26.2312890  56.3820950  38.6345630
  27.6646870  56.8583390  38.5323840  17.6486570  54.4142240  28.9632880
  17.3599620  54.9845100  29.6757860  18.3932330  53.9346690  29.3264110
  17.8356800  58.3562360  20.1735600  17.7531470  59.2993120  20.3150590
  17.4839860  58.2137270  19.2947950  29.1977540  60.4147190  30.8353460
  28.4658660  60.9234000  31.1843560  28.8001880  59.5977170  30.5342240
  25.6354930  57.0901390  29.2405950  25.6390990  56.6491340  28.3910490
  26.5306050  57.4118720  29.3477770  21.4857310  56.9727880  28.2000160
  21.1457360  57.4503110  28.9567210  20.7234630  56.5193000  27.8401260
  25.6975080  58.0913470  22.2312710  25.8187900  58.0499950  23.1798530
  25.3123590  58.9537620  22.0759440  29.6603450  55.8680870  30.2476400
  29.6776190  56.3189520  31.0918250  29.4119030  54.9686510  30.4609840
  24.7096580  60.4014610  21.6296010  24.1413480  59.9532860  21.0031920
  25.4185580  60.7607390  21.0961160  19.7865760  64.3026630  35.5062740
  19.4020550  63.6620300  36.1045700  20.0977950  65.0062750  36.0757470
  25.9362900  61.1503170  30.9871360  26.3033030  60.6761740  31.7332700
  25.7467960  62.0244740  31.3279700  18.8003390  55.8946860  27.1164830
  18.5150310  55.5302530  27.9543450  18.7382250  55.1627320  26.5027970
  23.7262270  60.1911810  33.3055570  23.4219340  61.0703790  33.5305930
  24.6808730  60.2511600  33.3413010  22.2544060  64.3972800  23.9022420
  21.4806320  63.8570420  23.7421140  22.9838690  63.8779410  23.5640180
  33.0132040  63.3938160  29.6948810  33.7331160  63.8893450  29.3044920
  32.8113860  62.7156050  29.0502680  28.4741980  54.7876120  23.8378200
  27.6606590  54.2889290  23.7623510  28.2803930  55.6274370  23.4214550
  28.3950840  63.4647220  35.5817810  28.3288150  62.5442890  35.3275400
  27.7655980  63.5622660  36.2962450  31.1890370  59.1595770  22.1340360
  32.0769990  59.4713000  21.9591700  31.1595460  58.2868020  21.7420940
  22.2981460  64.0653180  27.5401230  22.8160130  63.2621440  27.4858120
  21.8465480  64.0032320  28.3818060  27.1850960  65.3319460  22.8128530
  27.5266660  66.0761690  22.3171850  26.3563670  65.6450580  23.1753360
  19.7826000  61.0314550  34.4526930  19.4240940  61.6968400  35.0400270
  19.4880560  60.1998100  34.8239550  22.9839120  61.4898790  37.3366480
  22.6839260  61.6355970  36.4394300  23.7550360  60.9304080  37.2439870
  28.3267570  66.2867790  35.3321610  28.3412110  65.3548750  35.1140520
  27.6192670  66.3727550  35.9711380  33.4604640  60.4707610  21.6020220
  33.3768360  60.9021830  20.7516660  34.1798830  60.9305960  22.0347040
  34.5378780  62.9275130  34.6790190  33.8126970  63.5203910  34.4819580
  35.0654240  62.9198670  33.8803560  34.4891890  67.3249870  24.3302350
  33.8468050  66.6705490  24.6046070  34.1022550  67.7304960  23.5543020
  30.0678370  64.6535300  28.1774040  30.4202190  64.0563430  27.5175410
  29.1840700  64.3279530  28.3482290  26.1541650  65.4132990  25.5844450
  26.8412780  65.9602200  25.9652040  25.3674070  65.9573720  25.6194060
  18.2934050  61.0305810  21.0761530  19.1628900  61.3130610  21.3597450
  17.8024370  61.8441680  20.9610340  25.4568860  62.4179020  25.1969810
  25.9131640  63.2284270  25.4230000  25.1057070  62.1002160  26.0288300
  27.7601470  67.9285360  32.4262110  28.4043690  68.1344740  33.1035530
  28.1230910  67.1673760  31.9732960  21.3580640  52.7616670  25.6692330
  21.2295270  52.7534570  26.6177250  20.5342660  53.0999760  25.3183340
  29.0333550  65.9317710  31.1439560  29.6755780  65.2310870  31.2571730
  29.5582900  66.7116150  30.9636450  32.8789270  66.2166330  20.8678700
  32.6526850  65.4996770  21.4603340  32.4885470  65.9678770  20.0300450
  30.8071170  66.7312610  34.3475620  31.1427410  67.3179300  35.0253540
  29.8871510  66.6005320  34.5773410  18.6605300  70.2433190  21.6423160
  19.0202940  70.8422530  20.9880430  18.5197640  70.7893080  22.4158190
  18.3574570  54.5207790  35.1299030  17.6433090  54.7204710  35.7351640
  18.7769610  53.7447360  35.5013830  32.4605520  64.1338270  22.5292860
  32.1727220  64.5950960  23.3170740  33.2557690  63.6736040  22.7977080
  18.6447160  68.5088050  36.1165560  18.7538280  67.5682790  35.9760950
  17.9927720  68.7742800  35.4679290  26.6359750  66.7803940  37.5163680
  26.3156620  66.0613180  38.0609370  25.9618110  67.4559010  37.5899740
  24.6773920  67.6264390  22.4596830  24.6684020  68.3594080  21.8441340
  23.7572280  67.3795970  22.5523790  20.2780560  62.8479280  23.2043590
  19.6708510  63.5878180  23.2138890  20.7529910  62.9378640  22.3781790
  29.8513350  57.0130100  32.8800480  30.2194170  56.1925310  33.2080050
  28.9911550  57.0731990  33.2956130  33.2175380  55.9687040  23.6888040
  32.5888540  56.0732710  22.9746270  32.7227300  56.1883820  24.4781920
  27.6633520  67.6892630  21.1222020  27.7645500  67.4856620  20.1924000
  26.7635260  67.4350910  21.3269800  25.1859410  58.2472990  25.1045920
  24.4775560  58.7159330  25.5459530  25.4703890  57.5895000  25.7391110
  26.8115340  59.6669690  33.1038450  27.3100590  60.1415510  33.7690300
  26.9538290  58.7433210  33.3108480  29.2174840  54.9723650  26.5441710
  29.0942620  54.9909780  25.5951220  30.1659400  55.0202590  26.6640110
  26.3051630  70.2078950  25.8169690  26.5593130  70.1700340  24.8949060
  25.3564110  70.0812280  25.8097940  23.3894430  56.5558070  22.4796630
  24.2384960  56.9928220  22.4136820  23.0225700  56.8678330  23.3068690
  34.0182200  55.8837650  33.9466840  33.5155800  56.6243050  34.2860650
  34.8338860  56.2721650  33.6303630  32.3104210  61.1270830  27.3928200
  31.3694350  61.1421060  27.5675890  32.6248280  60.3406790  27.8388500
  22.2885850  62.8090430  20.9532160  23.0549120  62.6971790  21.5157590
  22.3660540  62.1128400  20.3008930  20.9832610  60.2415500  21.6365050
  21.0636200  59.2943010  21.7482450  21.8752360  60.5722380  21.7425710
  34.3129790  68.2979680  29.0682460  34.4377210  69.1210850  29.5406270
  35.1795350  68.0870410  28.7206610  21.7847320  70.3910890  28.7399590
  22.5209800  69.8426350  29.0108160  22.1688240  71.2566900  28.6005580
  18.6692800  66.4584460  24.6141100  17.7432580  66.7005600  24.6046510
  19.1349230  67.2858720  24.4925850  20.7905600  69.5756960  37.9285170
  21.5918330  69.8969010  38.3420570  20.2757420  69.2152540  38.6505080
  24.8949630  69.5641200  20.5625160  25.6878240  69.8530030  20.1106950
  24.3753980  69.1333370  19.8837640  29.6270230  65.6836830  37.8760580
  29.0208390  65.7068430  37.1356330  29.3224340  64.9519870  38.4127830
  31.0570600  69.4117120  36.4869990  32.0092350  69.3275140  36.4370230
  30.9098820  70.0758830  37.1603780  33.9479800  68.7911330  21.9861900
  33.6621310  68.3776470  21.1716080  33.7499350  69.7199040  21.8662420
  18.5103410  62.0630420  36.8721220  19.0142430  61.4837700  37.4437450
  17.7710830  62.3470650  37.4097590  25.4127030  64.7844610  20.4267510
  25.3077670  64.1696960  21.1528890  25.2451250  64.2610500  19.6430520
  25.5641350  63.4701410  36.4056740  24.7987020  64.0386410  36.3211410
  25.7457310  63.1777620  35.5124970  28.6529760  63.8464640  21.0309500
  28.1039860  64.2933940  21.6752240  29.2749020  63.3413890  21.5547170
  32.7064700  65.2006740  36.9631760  33.4474170  65.5382500  36.4599220
  31.9437380  65.3698800  36.4101530  20.5426490  60.2060010  37.7671290
  20.5831830  59.9073880  38.6756520  21.3971990  60.6067620  37.6078810
  24.3204880  62.8055560  22.9274800  24.7421300  62.6395430  23.7706190
  24.4455720  61.9955790  22.4329940  22.4832300  58.7852110  35.7345780
  21.9528760  58.2943060  35.1069120  23.1520370  59.2136310  35.2003710
  26.8332520  61.8293170  20.1751900  27.3538180  61.1142190  19.8093050
  27.4800920  62.4679040  20.4752410  31.3810360  63.2521570  35.4986970
  31.7951380  63.4066650  36.3477390  30.4461360  63.3776790  35.6612750
  31.8532530  60.5917730  37.5026120  32.4353300  59.8370050  37.4146600
  32.0294300  61.1225170  36.7257600  22.9704600  55.7514480  35.8143070
  22.8761470  55.1335230  35.0893940  22.3901990  56.4780770  35.5872980
  25.7366040  54.3087720  32.8470460  25.2883340  54.3311980  32.0016010
  25.1031240  53.9106740  33.4440760  26.1425590  63.2042050  33.4682900
  26.5613700  64.0474780  33.2959140  25.2234220  63.3414090  33.2389680
  28.4789490  60.9358230  34.8520740  28.5985700  60.3399370  35.5915580
  29.3383490  60.9727920  34.4322040  30.8177390  61.4895420  33.4283250
  30.2912610  62.0138040  32.8248390  31.1608730  62.1222810  34.0592980
  23.2163780  58.8788790  19.8732960  23.0152840  58.0156150  20.2346300
  23.0455830  58.7922150  18.9354560  23.9933010  69.5095060  34.5840630
  23.4554100  70.2341120  34.2649330  24.2466970  69.0325400  33.7937970
  25.2458260  57.4779580  36.1096560  25.8357950  57.1695430  36.7974380
  24.4278500  57.0059330  36.2656460  30.0651690  57.0945390  36.3429580
  29.3767210  56.4326930  36.2779570  30.7857710  56.6483660  36.7878040
  30.6952090  53.6897020  22.4019840  30.9754380  52.8464920  22.7579260
  29.9217820  53.9220130  22.9158590  22.0146580  55.9789410  19.8610840
  22.3172480  55.9856840  18.9529990  22.7541170  55.6287270  20.3578500
  26.8495220  70.7446270  34.8427280  26.7753920  71.6481410  35.1499650
  25.9474060  70.4258170  34.8149350  25.2331510  54.9224030  20.8467040
  24.8853510  54.2448020  20.2669490  25.4344280  54.4613540  21.6610430
  27.3980550  69.9104780  22.4653640  28.2931340  70.2489750  22.4872400
  27.4298180  69.1884190  21.8377920  21.0376710  65.2831830  20.6940640
  21.4751580  65.8261500  21.3498220  21.5224440  64.4578780  20.7036980
  18.2522510  68.0720860  28.1460900  18.5825520  67.2041920  27.9139540
  18.6813510  68.2779380  28.9765860  22.8484430  66.4029870  25.8062870
  22.5479970  66.2794840  26.7066780  22.7421920  65.5438460  25.3978600
  18.7412720  68.9391450  30.8842530  18.3043710  69.1192250  31.7166680
  19.3090400  69.6966070  30.7424250  34.3774900  68.4408450  35.1719840
  33.7776890  68.5001010  34.4283760  34.5068800  67.5013430  35.3016690
  35.6176350  66.1826270  20.5089550  34.7869310  66.2502920  20.9796780
  35.7948180  67.0730390  20.2056410  35.0732810  62.9273750  23.0123750
  35.8351720  63.4970400  23.1183440  35.0887180  62.3600950  23.7832060
  18.5737150  61.4511680  27.2431410  17.9185990  61.1823320  26.5991110
  19.4115100  61.3416160  26.7933390  36.0792780  63.7823850  27.8565680
  36.4501610  62.9991170  27.4501650  36.7194710  64.4712950  27.6782980
  33.0626540  65.1660430  33.2696000  32.2486380  65.5957590  33.5321790
  33.4700740  65.7778840  32.6565050  35.1251980  63.2208120  20.1696270
  35.4000820  64.1287000  20.0415490  34.9362720  63.1570650  21.1058260
  31.5227590  56.2452970  21.4649900  31.9412470  56.0583950  20.6246560
  31.2163650  55.3932020  21.7752830  35.0217320  61.1577110  25.1625700
  34.6460920  60.3905040  24.7306990  34.2920440  61.5399810  25.6500630
  19.6113080  61.8364250  31.7834750  19.9786120  61.7491650  32.6630770
  19.0423900  61.0730800  31.6841610  34.4116940  60.3048630  34.7965220
  34.1803030  60.0761380  33.8963170  34.6721490  61.2248180  34.7510110
  19.1629080  58.7473340  35.6893170  18.2685130  58.7140100  36.0286880
  19.7026630  58.9460130  36.4544420  32.8505010  55.5305060  37.5744920
  33.7275190  55.5388460  37.9578920  32.8625850  54.7935900  36.9637270
  17.7875230  58.6610610  23.1856740  16.8839310  58.9240810  23.0108400
  18.2715850  58.9321780  22.4056700  34.2968280  59.3834600  28.4632940
  34.8205760  58.8897250  27.8323110  34.8827700  59.5184960  29.2080510
  34.4758000  59.4674470  31.9852490  33.5260710  59.4338010  32.0997480
  34.6571010  60.3774580  31.7502260  20.3302440  57.7176150  21.0951120
  21.0394140  57.2959370  20.6098400  19.6142380  57.7851380  20.4634470
  19.9776600  53.7715480  20.1353770  20.7004730  54.3124420  20.4534990
  20.2501120  53.4978900  19.2595310  33.7868250  58.6407950  24.4025350
  34.2827370  58.4078820  25.1874230  33.5884320  57.8019790  23.9862990
  19.6668790  53.0221670  30.0376390  20.3144980  52.4719050  29.5971550
  20.0870630  53.2764820  30.8592200  35.2155410  57.2768900  26.9363030
  35.1054690  57.1224940  27.8745300  35.9763000  56.7489840  26.6938440
  33.5621130  53.2163030  33.3946030  34.1993350  53.8297170  33.7605220
  33.7096020  53.2523690  32.4495260  36.1045680  55.1076820  20.1769170
  37.0294990  54.9758000  19.9687460  36.0821470  55.1869640  21.1305620
  36.1784170  55.8787480  22.8025880  35.3835670  55.8132600  23.3318790
  36.3827450  56.8138120  22.7911230  33.1202590  69.9179030  26.7964270
  33.7161660  69.5963600  26.1198690  33.3780740  69.4450850  27.5877540
  19.4200790  53.1777340  32.7801710  19.0715610  53.6341160  33.5459890
  19.0888490  52.2834470  32.8624140  21.0265160  66.3496940  36.9454900
  20.9834790  65.9789850  37.8269360  21.1576170  67.2874510  37.0856720
  24.7271190  67.9056530  32.5464620  24.4862550  68.1731090  31.6595140
  25.6673830  68.0762260  32.6015480  26.9325610  54.3689220  36.3021130
  26.8714500  54.9611050  37.0516540  27.8725990  54.2615180  36.1571390
  29.5700170  54.0259280  35.9413420  30.1840580  54.3438570  35.2794500
  30.1149730  53.5407870  36.5609280  35.9875350  69.9250910  33.3475260
  35.4933630  70.3219780  32.6302390  35.3788640  69.3000120  33.7412540
  20.0921430  52.7053540  36.0552480  20.6404420  52.5241590  35.2918590
  20.1576740  51.9147650  36.5908790  20.8653190  69.2959190  34.0652680
  20.2713510  69.1643890  34.8042720  20.8577030  68.4597330  33.5994780
  30.3108210  52.5891420  32.2682710  29.4368050  52.9226530  32.0655640
  30.2018960  52.1164600  33.0934580  31.2180190  54.7962290  33.6524430
  30.8893550  53.9814050  33.2726160  32.1662490  54.7532100  33.5290120
  33.6714800  70.5674330  30.6262000  33.2117770  71.3190140  30.2520020
  33.0427260  69.8480800  30.5676800  20.4965420  66.6617570  33.0160720
  19.7699480  66.0422860  32.9486670  20.5574570  67.0558180  32.1458800
  24.1010520  68.8762570  29.8010130  24.6175540  68.2649930  29.2758390
  24.7507900  69.3791350  30.2921140  26.8406020  69.7671060  30.6279110
  27.1283830  69.5125360  29.7512120  27.3529240  69.2148420  31.2184680
  28.0583030  53.5061260  31.2075620  27.2754820  53.9806760  31.4872380
  27.7645960  52.6016090  31.0988800  32.6104100  54.2084360  29.2524710
  33.0512190  54.1529460  28.4046310  32.3411690  55.1242370  29.3234890
  34.4742670  53.8399600  27.2633530  34.4131070  52.8960820  27.1164550
  35.2534700  53.9479690  27.8086990  18.7795420  69.9791960  26.2257480
  18.6117460  69.3462640  26.9239370  17.9129930  70.1851360  25.8751670
  19.4023440  53.8108740  23.7289340  20.1602800  53.9237620  23.1553370
  18.9400610  54.6477940  23.6832770  25.9437250  55.9248010  26.7191650
  25.1311760  55.5504900  26.3787530  26.4478890  55.1693090  27.0212840
  30.4462230  52.5890460  27.9574720  31.0491600  53.1610670  28.4323240
  29.7055220  53.1529900  27.7348620  33.5896830  52.9912020  23.2315000
  33.7847460  53.8895470  23.4982430  32.8026700  52.7599100  23.7247950
  20.3858120  68.6725190  23.6707620  19.8605740  69.0533220  22.9669580
  20.3102700  69.2975960  24.3917330  21.7748590  54.3372790  22.2691310
  22.3041350  53.5502590  22.1399260  22.4076910  55.0163980  22.5026840
  23.9686430  54.0747930  25.3236700  23.3389170  53.3735240  25.4906830
  23.4291570  54.8352060  25.1069860  26.9078380  70.6887160  37.9947310
  27.8345690  70.4531430  38.0383270  26.8928810  71.5159160  37.5133340
  35.1423440  70.2312730  24.9921560  35.3175630  69.5450470  24.3482480
  34.4445010  70.7559780  24.5998230  24.0941990  53.3531910  37.7589190
  23.8126260  53.8565510  36.9950010  24.4761690  52.5553660  37.3931320
  22.9851090  70.6207570  22.5456870  23.7169910  70.3366850  21.9980760
  23.2444760  70.3820850  23.4356250  22.1465880  66.7372300  22.5503200
  21.5174760  67.2057400  23.0989030  22.2613710  65.8921520  22.9849390
  33.4755940  69.9157020  37.8188350  34.2681260  69.4206250  37.6114310
  33.7689090  70.5947160  38.4263960  29.6015600  60.7877960   8.7004400
  29.5209650  59.8732570   8.4296110  29.1880020  61.2845030   7.9944110
  27.7333640  62.5656980  10.5813670  26.9575740  62.0857420  10.8712240
  28.3846570  61.8862630  10.4069830  21.7499470  62.8776790  11.4589430
  20.9184350  62.6225500  11.8585940  22.3580450  62.9487560  12.1947350
  31.7541070  66.9717170   9.3612800  31.2922600  66.2004410   9.6899970
  32.5666620  66.9983240   9.8665250  21.7300730  66.9116880  11.6547450
  22.0328770  66.0214620  11.4757670  22.4744320  67.4687100  11.4269700
  20.1591420  57.8378680   5.2431820  19.2708120  58.1794650   5.1411700
  20.4432610  57.6379000   4.3512650  18.1224430  60.4384330  11.1271520
  18.6940540  59.6706530  11.1275160  18.1225970  60.7373090  10.2178130
  27.9804380  69.2575180   8.9816790  27.3615820  69.7132680   8.4111230
  28.8356160  69.4126640   8.5806490  27.1742630  65.2414170  10.5883830
  27.1050910  64.3004110  10.4272960  27.9362490  65.3315580  11.1606400
  19.3649300  55.8468690  12.9140450  19.1852140  54.9494440  13.1943210
  18.9629380  56.3940560  13.5887400  28.2047800  58.0484550  10.8152760
  28.5812620  57.1756430  10.7026430  28.1067310  58.3843250   9.9243200
  22.3352810  56.4210180   6.2770200  22.4419560  57.3213910   6.5838960
  21.4245170  56.3728150   5.9864850  31.9871920  55.5434990   7.7481100
  32.8081540  55.0531560   7.7906580  32.0206000  56.1332650   8.5012940
  19.9835970  58.3429190  11.5222790  20.6646080  58.6067560  12.1410190
  19.6684020  57.5030060  11.8560800  24.1760540  59.3896550  10.6095380
  24.6838760  59.8877520  11.2500400  24.7073780  58.6131750  10.4334740
  36.2771470  57.5601740  14.3124730  35.5723640  57.9483450  13.7939840
  36.5429390  58.2552030  14.9145660  22.4596640  54.0295110  14.8758800
  22.4615080  54.5467500  14.0704700  21.6300950  53.5525290  14.8528730
  28.8467730  64.1414420   6.3748700  28.2285000  64.6063870   5.8111420
  29.3590980  64.8341900   6.7918210  23.7099490  63.6690290  13.0532300
  23.3768870  64.2959210  13.6953370  23.8866170  64.1952170  12.2733970
  32.2233400  57.4835370  10.5208640  31.5188970  57.7720260  11.1011750
  32.5845560  58.2935480  10.1608200  22.1411970  55.7405070  12.8829250
  22.4828780  56.5847120  12.5883120  21.2027780  55.8888810  12.9994590
  22.9218590  65.6371090  14.8681480  23.5392590  66.3122170  14.5865930
  22.0611710  66.0459070  14.7768980  18.2150930  64.8270950   3.7488330
  17.8378910  65.3158050   3.0173230  18.4724000  65.4996230   4.3794860
  33.8396180  67.1010500  12.7836120  33.1559700  67.7709610  12.7752790
  34.3790470  67.2991150  12.0180980  35.2920320  56.9290160  10.9117850
  34.3445230  56.9629140  11.0433280  35.6170310  57.7429110  11.2967210
  25.8239860  53.2287340   9.2073840  26.1314840  52.6734230   8.4909340
  24.8940560  53.3631800   9.0246830  31.3754920  68.9454630  11.4981300
  31.3882080  68.5416920  10.6303560  30.8230140  69.7201920  11.3942730
  32.6700340  65.6670850   6.5871470  32.5596670  64.7245180   6.7120890
  32.6668590  66.0286490   7.4734230  30.7740360  63.8484470  12.8263910
  31.1909150  63.6344580  11.9917370  31.4980180  64.1057260  13.3972530
  28.2120620  61.2936170   5.9433960  27.2849900  61.2273550   6.1722430
  28.3645440  62.2316300   5.8289200  28.1989700  57.5653170   2.9401120
  27.2593370  57.7267130   3.0253580  28.5172960  58.2838850   2.3937110
  34.7202460  62.2471690  12.9180150  33.8921090  62.3164780  12.4430280
  35.3152940  62.8326000  12.4495980  32.2417910  62.8556470   6.4469210
  31.6230330  62.5176020   5.7995510  32.2242360  62.2116230   7.1548400
  31.6844470  59.0341010  13.8635020  31.2715650  59.8594720  14.1175010
  30.9520420  58.4486050  13.6711380  23.8177260  61.8200910   8.7253690
  23.4134260  61.1078160   8.2299590  23.9040380  61.4754150   9.6141730
  24.2858960  65.5068470  10.8892900  23.9887250  64.9013940  10.2100680
  25.2358780  65.5445780  10.7782260  22.5305880  58.5944120  12.5052730
  23.0820470  58.7039460  11.7305980  23.0449390  58.9681720  13.2207960
  32.3744570  69.0800340  14.5516000  31.8975130  69.8872530  14.3588610
  31.6906360  68.4278670  14.7042210  23.3777390  65.2450160  17.5400700
  22.4805920  65.4690130  17.7874100  23.4030260  65.3685100  16.5912100
  30.4182610  62.0943280   3.4541960  30.8575890  61.2565710   3.3079780
  31.1311030  62.7272680   3.5406100  22.2048610  62.1163480  16.1158070
  22.0656380  62.9886280  16.4845470  21.3229970  61.7736290  15.9706010
  28.5277990  67.0339350   7.4223200  28.9673900  67.7763680   7.0078590
  28.4664880  67.2765920   8.3462160  24.0028960  68.0585180  18.3243220
  23.9744390  68.4628130  17.4571650  23.8393930  67.1295540  18.1614820
  33.9999750  53.3486090   1.7683000  33.6872410  53.4412920   2.6682070
  34.7612220  53.9267120   1.7180430  20.5181890  60.7145890   6.2260340
  20.3979490  61.4407980   5.6141610  20.2082780  59.9448800   5.7488250
  35.9543780  68.8412280  19.6207390  36.4303500  69.3195170  20.2996470
  36.5750940  68.7729770  18.8952890  18.1567260  63.8861030  12.0328980
  18.2347680  64.0209800  11.0884700  18.7708940  63.1776920  12.2257100
  19.4014890  65.5861220   8.4435160  18.9942970  65.7275810   7.5888760
  20.2927900  65.3021380   8.2406370  35.3577030  66.0325130  16.7807400
  35.4840090  65.7937010  15.8624580  35.3998410  65.2009670  17.2529480
  29.2193770  69.7353130  15.3502210  29.7338440  69.6461140  16.1524640
  28.3762850  70.0812830  15.6430120  31.1948170  70.0208470   4.7786210
  31.0349310  69.7311410   5.6768040  31.0294880  69.2448600   4.2431440
  23.6736550  69.8007000   6.5557830  23.4979030  68.8842540   6.3425630
  22.8192290  70.1594290   6.7955630  30.8974300  67.5296030   3.3384210
  30.2039460  67.5273320   2.6786490  31.6397160  67.1055350   2.9078380
  30.4624230  69.1558740   7.4132700  30.9181180  68.3748120   7.7271320
  30.8016750  69.8665560   7.9573880  35.2101040  58.0857590  17.7457140
  34.5945310  58.5937260  17.2172600  34.8897460  57.1855920  17.6883080
  18.2126780  64.9275200  14.5723440  18.3757820  64.4580560  13.7542810
  18.6779230  64.4198760  15.2372280  22.9845550  54.0580960   9.6084010
  22.5413700  54.8390500   9.2768530  23.5430540  54.3810850  10.3154950
  27.2715360  56.9249480  15.2119330  26.8094730  57.1332500  16.0239270
  26.8693470  56.1108830  14.9090000  32.2719870  58.1458430  16.3415990
  31.4213460  57.8464180  16.6625060  32.1121660  58.3900440  15.4299810
  29.3669580  59.6460180  18.4414780  29.6922990  58.8123930  18.1017010
  30.1549910  60.1688700  18.5893110  26.1004370  53.6791660   4.4889840
  25.4758550  53.6751530   5.2143150  26.0134490  52.8122620   4.0925810
  25.0221450  54.6028290  11.4673610  25.3193780  55.5091120  11.3865630
  25.5707010  54.1147070  10.8533180  22.7759770  59.1814530   7.3365260
  22.5500690  58.9651700   8.2411880  21.9952300  59.6142990   6.9911230
  30.0057530  59.1877900   5.9355910  29.4066420  59.9113700   5.7519530
  30.5537140  59.1254680   5.1532360  25.2158980  60.0800110  18.0025530
  25.1202580  59.1394840  17.8525930  26.0590960  60.3015180  17.6073600
  28.6122400  57.8241440   7.9659190  29.0051970  58.1413640   7.1527880
  28.9739250  56.9453320   8.0803710  20.3469520  56.4913780  16.1559310
  19.9532910  57.3388990  16.3632090  19.6587920  55.8540150  16.3467950
  26.9214570  56.5748750  19.2256050  26.2312890  56.3820950  19.8602140
  27.6646870  56.8583390  19.7580350  17.6486570  54.4142240  10.1889390
  17.3599620  54.9845100  10.9014370  18.3932330  53.9346690  10.5520620
  29.1977540  60.4147190  12.0609970  28.4658660  60.9234000  12.4100070
  28.8001880  59.5977170  11.7598750  25.6354930  57.0901390  10.4662460
  25.6390990  56.6491340   9.6167000  26.5306050  57.4118720  10.5734280
  21.4857310  56.9727880   9.4256670  21.1457360  57.4503110  10.1823720
  20.7234630  56.5193000   9.0657770  25.6975080  58.0913470   3.4569220
  25.8187900  58.0499950   4.4055040  25.3123590  58.9537620   3.3015950
  29.6603450  55.8680870  11.4732910  29.6776190  56.3189520  12.3174760
  29.4119030  54.9686510  11.6866350  24.7096580  60.4014610   2.8552520
  24.1413480  59.9532860   2.2288430  25.4185580  60.7607390   2.3217670
  33.0874200  53.2813050  17.3119290  33.4119970  52.5502710  17.8377270
  33.1230710  52.9626690  16.4100280  19.7865760  64.3026630  16.7319250
  19.4020550  63.6620300  17.3302210  20.0977950  65.0062750  17.3013980
  25.9362900  61.1503170  12.2127870  26.3033030  60.6761740  12.9589210
  25.7467960  62.0244740  12.5536210  18.8003390  55.8946860   8.3421340
  18.5150310  55.5302530   9.1799960  18.7382250  55.1627320   7.7284480
  23.7262270  60.1911810  14.5312080  23.4219340  61.0703790  14.7562440
  24.6808730  60.2511600  14.5669520  22.2544060  64.3972800   5.1278930
  21.4806320  63.8570420   4.9677650  22.9838690  63.8779410   4.7896690
  33.0132040  63.3938160  10.9205320  33.7331160  63.8893450  10.5301430
  32.8113860  62.7156050  10.2759190  28.4741980  54.7876120   5.0634710
  27.6606590  54.2889290   4.9880020  28.2803930  55.6274370   4.6471060
  28.3950840  63.4647220  16.8074320  28.3288150  62.5442890  16.5531910
  27.7655980  63.5622660  17.5218960  31.1890370  59.1595770   3.3596870
  32.0769990  59.4713000   3.1848210  31.1595460  58.2868020   2.9677450
  22.2981460  64.0653180   8.7657740  22.8160130  63.2621440   8.7114630
  21.8465480  64.0032320   9.6074570  27.1850960  65.3319460   4.0385040
  27.5266660  66.0761690   3.5428360  26.3563670  65.6450580   4.4009870
  19.7826000  61.0314550  15.6783440  19.4240940  61.6968400  16.2656780
  19.4880560  60.1998100  16.0496060  22.9839120  61.4898790  18.5622990
  22.6839260  61.6355970  17.6650810  23.7550360  60.9304080  18.4696380
  28.3267570  66.2867790  16.5578120  28.3412110  65.3548750  16.3397030
  27.6192670  66.3727550  17.1967890  33.4604640  60.4707610   2.8276730
  33.3768360  60.9021830   1.9773170  34.1798830  60.9305960   3.2603550
  34.5378780  62.9275130  15.9046700  33.8126970  63.5203910  15.7076090
  35.0654240  62.9198670  15.1060070  34.4891890  67.3249870   5.5558860
  33.8468050  66.6705490   5.8302580  34.1022550  67.7304960   4.7799530
  30.0678370  64.6535300   9.4030550  30.4202190  64.0563430   8.7431920
  29.1840700  64.3279530   9.5738800  26.1541650  65.4132990   6.8100960
  26.8412780  65.9602200   7.1908550  25.3674070  65.9573720   6.8450570
  18.2934050  61.0305810   2.3018040  19.1628900  61.3130610   2.5853960
  17.8024370  61.8441680   2.1866850  25.4568860  62.4179020   6.4226320
  25.9131640  63.2284270   6.6486510  25.1057070  62.1002160   7.2544810
  27.7601470  67.9285360  13.6518620  28.4043690  68.1344740  14.3292040
  28.1230910  67.1673760  13.1989470  21.3580640  52.7616670   6.8948840
  21.2295270  52.7534570   7.8433760  20.5342660  53.0999760   6.5439850
  29.0333550  65.9317710  12.3696070  29.6755780  65.2310870  12.4828240
  29.5582900  66.7116150  12.1892960  30.8071170  66.7312610  15.5732130
  31.1427410  67.3179300  16.2510050  29.8871510  66.6005320  15.8029920
  18.6605300  70.2433190   2.8679670  19.0202940  70.8422530   2.2136940
  18.5197640  70.7893080   3.6414700  18.3574570  54.5207790  16.3555540
  17.6433090  54.7204710  16.9608150  18.7769610  53.7447360  16.7270340
  32.4605520  64.1338270   3.7549370  32.1727220  64.5950960   4.5427250
  33.2557690  63.6736040   4.0233590  18.6447160  68.5088050  17.3422070
  18.7538280  67.5682790  17.2017460  17.9927720  68.7742800  16.6935800
  26.6359750  66.7803940  18.7420190  26.3156620  66.0613180  19.2865880
  25.9618110  67.4559010  18.8156250  24.6773920  67.6264390   3.6853340
  24.6684020  68.3594080   3.0697850  23.7572280  67.3795970   3.7780300
  20.2780560  62.8479280   4.4300100  19.6708510  63.5878180   4.4395400
  20.7529910  62.9378640   3.6038300  29.8513350  57.0130100  14.1056990
  30.2194170  56.1925310  14.4336560  28.9911550  57.0731990  14.5212640
  33.2175380  55.9687040   4.9144550  32.5888540  56.0732710   4.2002780
  32.7227300  56.1883820   5.7038430  25.1859410  58.2472990   6.3302430
  24.4775560  58.7159330   6.7716040  25.4703890  57.5895000   6.9647620
  26.8115340  59.6669690  14.3294960  27.3100590  60.1415510  14.9946810
  26.9538290  58.7433210  14.5364990  29.2174840  54.9723650   7.7698220
  29.0942620  54.9909780   6.8207730  30.1659400  55.0202590   7.8896620
  26.3051630  70.2078950   7.0426200  26.5593130  70.1700340   6.1205570
  25.3564110  70.0812280   7.0354450  23.3894430  56.5558070   3.7053140
  24.2384960  56.9928220   3.6393330  23.0225700  56.8678330   4.5325200
  34.0182200  55.8837650  15.1723350  33.5155800  56.6243050  15.5117160
  34.8338860  56.2721650  14.8560140  32.3104210  61.1270830   8.6184710
  31.3694350  61.1421060   8.7932400  32.6248280  60.3406790   9.0645010
  20.9832610  60.2415500   2.8621560  21.0636200  59.2943010   2.9738960
  21.8752360  60.5722380   2.9682220  34.3129790  68.2979680  10.2938970
  34.4377210  69.1210850  10.7662780  35.1795350  68.0870410   9.9463120
  21.7847320  70.3910890   9.9656100  22.5209800  69.8426350  10.2364670
  22.1688240  71.2566900   9.8262090  18.6692800  66.4584460   5.8397610
  17.7432580  66.7005600   5.8303020  19.1349230  67.2858720   5.7182360
  20.7905600  69.5756960  19.1541680  21.5918330  69.8969010  19.5677080
  20.2757420  69.2152540  19.8761590  29.6270230  65.6836830  19.1017090
  29.0208390  65.7068430  18.3612840  29.3224340  64.9519870  19.6384340
  31.0570600  69.4117120  17.7126500  32.0092350  69.3275140  17.6626740
  30.9098820  70.0758830  18.3860290  33.9479800  68.7911330   3.2118410
  33.6621310  68.3776470   2.3972590  33.7499350  69.7199040   3.0918930
  18.5103410  62.0630420  18.0977730  19.0142430  61.4837700  18.6693960
  17.7710830  62.3470650  18.6354100  25.5641350  63.4701410  17.6313250
  24.7987020  64.0386410  17.5467920  25.7457310  63.1777620  16.7381480
  28.6529760  63.8464640   2.2566010  28.1039860  64.2933940   2.9008750
  29.2749020  63.3413890   2.7803680  32.7064700  65.2006740  18.1888270
  33.4474170  65.5382500  17.6855730  31.9437380  65.3698800  17.6358040
  20.5426490  60.2060010  18.9927800  20.5831830  59.9073880  19.9013030
  21.3971990  60.6067620  18.8335320  24.3204880  62.8055560   4.1531310
  24.7421300  62.6395430   4.9962700  24.4455720  61.9955790   3.6586450
  22.4832300  58.7852110  16.9602290  21.9528760  58.2943060  16.3325630
  23.1520370  59.2136310  16.4260220  31.3810360  63.2521570  16.7243480
  31.7951380  63.4066650  17.5733900  30.4461360  63.3776790  16.8869260
  31.8532530  60.5917730  18.7282630  32.4353300  59.8370050  18.6403110
  32.0294300  61.1225170  17.9514110  22.9704600  55.7514480  17.0399580
  22.8761470  55.1335230  16.3150450  22.3901990  56.4780770  16.8129490
  25.7366040  54.3087720  14.0726970  25.2883340  54.3311980  13.2272520
  25.1031240  53.9106740  14.6697270  26.1425590  63.2042050  14.6939410
  26.5613700  64.0474780  14.5215650  25.2234220  63.3414090  14.4646190
  28.4789490  60.9358230  16.0777250  28.5985700  60.3399370  16.8172090
  29.3383490  60.9727920  15.6578550  30.8177390  61.4895420  14.6539760
  30.2912610  62.0138040  14.0504900  31.1608730  62.1222810  15.2849490
  23.9933010  69.5095060  15.8097140  23.4554100  70.2341120  15.4905840
  24.2466970  69.0325400  15.0194480  25.2458260  57.4779580  17.3353070
  25.8357950  57.1695430  18.0230890  24.4278500  57.0059330  17.4912970
  30.0651690  57.0945390  17.5686090  29.3767210  56.4326930  17.5036080
  30.7857710  56.6483660  18.0134550  30.6952090  53.6897020   3.6276350
  30.9754380  52.8464920   3.9835770  29.9217820  53.9220130   4.1415100
  26.8495220  70.7446270  16.0683790  26.7753920  71.6481410  16.3756160
  25.9474060  70.4258170  16.0405860  27.3980550  69.9104780   3.6910150
  28.2931340  70.2489750   3.7128910  27.4298180  69.1884190   3.0634430
  21.0376710  65.2831830   1.9197150  21.4751580  65.8261500   2.5754730
  21.5224440  64.4578780   1.9293490  18.2522510  68.0720860   9.3717410
  18.5825520  67.2041920   9.1396050  18.6813510  68.2779380  10.2022370
  22.8484430  66.4029870   7.0319380  22.5479970  66.2794840   7.9323290
  22.7421920  65.5438460   6.6235110  18.7412720  68.9391450  12.1099040
  18.3043710  69.1192250  12.9423190  19.3090400  69.6966070  11.9680760
  34.3774900  68.4408450  16.3976350  33.7776890  68.5001010  15.6540270
  34.5068800  67.5013430  16.5273200  35.0732810  62.9273750   4.2380260
  35.8351720  63.4970400   4.3439950  35.0887180  62.3600950   5.0088570
  18.5737150  61.4511680   8.4687920  17.9185990  61.1823320   7.8247620
  19.4115100  61.3416160   8.0189900  36.0792780  63.7823850   9.0822190
  36.4501610  62.9991170   8.6758160  36.7194710  64.4712950   8.9039490
  33.0626540  65.1660430  14.4952510  32.2486380  65.5957590  14.7578300
  33.4700740  65.7778840  13.8821560  31.5227590  56.2452970   2.6906410
  31.9412470  56.0583950   1.8503070  31.2163650  55.3932020   3.0009340
  35.0217320  61.1577110   6.3882210  34.6460920  60.3905040   5.9563500
  34.2920440  61.5399810   6.8757140  19.6113080  61.8364250  13.0091260
  19.9786120  61.7491650  13.8887280  19.0423900  61.0730800  12.9098120
  34.4116940  60.3048630  16.0221730  34.1803030  60.0761380  15.1219680
  34.6721490  61.2248180  15.9766620  19.1629080  58.7473340  16.9149680
  18.2685130  58.7140100  17.2543390  19.7026630  58.9460130  17.6800930
  32.8505010  55.5305060  18.8001430  33.7275190  55.5388460  19.1835430
  32.8625850  54.7935900  18.1893780  17.7875230  58.6610610   4.4113250
  16.8839310  58.9240810   4.2364910  18.2715850  58.9321780   3.6313210
  34.2968280  59.3834600   9.6889450  34.8205760  58.8897250   9.0579620
  34.8827700  59.5184960  10.4337020  34.4758000  59.4674470  13.2109000
  33.5260710  59.4338010  13.3253990  34.6571010  60.3774580  12.9758770
  20.3302440  57.7176150   2.3207630  21.0394140  57.2959370   1.8354910
  19.6142380  57.7851380   1.6890980  33.7868250  58.6407950   5.6281860
  34.2827370  58.4078820   6.4130740  33.5884320  57.8019790   5.2119500
  19.6668790  53.0221670  11.2632900  20.3144980  52.4719050  10.8228060
  20.0870630  53.2764820  12.0848710  35.2155410  57.2768900   8.1619540
  35.1054690  57.1224940   9.1001810  35.9763000  56.7489840   7.9194950
  33.5621130  53.2163030  14.6202540  34.1993350  53.8297170  14.9861730
  33.7096020  53.2523690  13.6751770  36.1784170  55.8787480   4.0282390
  35.3835670  55.8132600   4.5575300  36.3827450  56.8138120   4.0167740
  33.1202590  69.9179030   8.0220780  33.7161660  69.5963600   7.3455200
  33.3780740  69.4450850   8.8134050  19.4200790  53.1777340  14.0058220
  19.0715610  53.6341160  14.7716400  19.0888490  52.2834470  14.0880650
  21.0265160  66.3496940  18.1711410  20.9834790  65.9789850  19.0525870
  21.1576170  67.2874510  18.3113230  24.7271190  67.9056530  13.7721130
  24.4862550  68.1731090  12.8851650  25.6673830  68.0762260  13.8271990
  26.9325610  54.3689220  17.5277640  26.8714500  54.9611050  18.2773050
  27.8725990  54.2615180  17.3827900  29.5700170  54.0259280  17.1669930
  30.1840580  54.3438570  16.5051010  30.1149730  53.5407870  17.7865790
  35.9875350  69.9250910  14.5731770  35.4933630  70.3219780  13.8558900
  35.3788640  69.3000120  14.9669050  20.0921430  52.7053540  17.2808990
  20.6404420  52.5241590  16.5175100  20.1576740  51.9147650  17.8165300
  20.8653190  69.2959190  15.2909190  20.2713510  69.1643890  16.0299230
  20.8577030  68.4597330  14.8251290  30.3108210  52.5891420  13.4939220
  29.4368050  52.9226530  13.2912150  30.2018960  52.1164600  14.3191090
  31.2180190  54.7962290  14.8780940  30.8893550  53.9814050  14.4982670
  32.1662490  54.7532100  14.7546630  33.6714800  70.5674330  11.8518510
  33.2117770  71.3190140  11.4776530  33.0427260  69.8480800  11.7933310
  20.4965420  66.6617570  14.2417230  19.7699480  66.0422860  14.1743180
  20.5574570  67.0558180  13.3715310  24.1010520  68.8762570  11.0266640
  24.6175540  68.2649930  10.5014900  24.7507900  69.3791350  11.5177650
  26.8406020  69.7671060  11.8535620  27.1283830  69.5125360  10.9768630
  27.3529240  69.2148420  12.4441190  28.0583030  53.5061260  12.4332130
  27.2754820  53.9806760  12.7128890  27.7645960  52.6016090  12.3245310
  32.6104100  54.2084360  10.4781220  33.0512190  54.1529460   9.6302820
  32.3411690  55.1242370  10.5491400  34.4742670  53.8399600   8.4890040
  34.4131070  52.8960820   8.3421060  35.2534700  53.9479690   9.0343500
  18.7795420  69.9791960   7.4513990  18.6117460  69.3462640   8.1495880
  17.9129930  70.1851360   7.1008180  19.4023440  53.8108740   4.9545850
  20.1602800  53.9237620   4.3809880  18.9400610  54.6477940   4.9089280
  25.9437250  55.9248010   7.9448160  25.1311760  55.5504900   7.6044040
  26.4478890  55.1693090   8.2469350  30.4462230  52.5890460   9.1831230
  31.0491600  53.1610670   9.6579750  29.7055220  53.1529900   8.9605130
  33.5896830  52.9912020   4.4571510  33.7847460  53.8895470   4.7238940
  32.8026700  52.7599100   4.9504460  20.3858120  68.6725190   4.8964130
  19.8605740  69.0533220   4.1926090  20.3102700  69.2975960   5.6173840
  21.7748590  54.3372790   3.4947820  22.3041350  53.5502590   3.3655770
  22.4076910  55.0163980   3.7283350  23.9686430  54.0747930   6.5493210
  23.3389170  53.3735240   6.7163340  23.4291570  54.8352060   6.3326370
  26.9078380  70.6887160  19.2203820  27.8345690  70.4531430  19.2639780
  26.8928810  71.5159160  18.7389850  35.1423440  70.2312730   6.2178070
  35.3175630  69.5450470   5.5738990  34.4445010  70.7559780   5.8254740
  24.0941990  53.3531910  18.9845700  23.8126260  53.8565510  18.2206520
  24.4761690  52.5553660  18.6187830  22.9851090  70.6207570   3.7713380
  23.7169910  70.3366850   3.2237270  23.2444760  70.3820850   4.6612760
  22.1465880  66.7372300   3.7759710  21.5174760  67.2057400   4.3245540
  22.2613710  65.8921520   4.2105900  30.6957450  52.7685490  19.5626170
  30.5822900  53.0880100  20.4577690  31.5127190  53.1698000  19.2663450
  33.4755940  69.9157020  19.0444860  34.2681260  69.4206250  18.8370820
  33.7689090  70.5947160  19.6520470  29.6015600  42.0134470  83.7978360
  29.5209650  41.0989080  83.5270070  29.1880020  42.5101540  83.0918070
  27.7333640  43.7913490  85.6787630  26.9575740  43.3113930  85.9686200
  28.3846570  43.1119140  85.5043790  21.7499470  44.1033300  86.5563390
  20.9184350  43.8482010  86.9559900  22.3580450  44.1744070  87.2921310
  31.7541070  48.1973680  84.4586760  31.2922600  47.4260920  84.7873930
  32.5666620  48.2239750  84.9639210  21.7300730  48.1373390  86.7521410
  22.0328770  47.2471130  86.5731630  22.4744320  48.6943610  86.5243660
  20.1591420  39.0635190  80.3405780  19.2708120  39.4051160  80.2385660
  20.4432610  38.8635510  79.4486610  18.1224430  41.6640840  86.2245480
  18.6940540  40.8963040  86.2249120  18.1225970  41.9629600  85.3152090
  27.9804380  50.4831690  84.0790750  27.3615820  50.9389190  83.5085190
  28.8356160  50.6383150  83.6780450  27.1742630  46.4670680  85.6857790
  27.1050910  45.5260620  85.5246920  27.9362490  46.5572090  86.2580360
  19.3649300  37.0725200  88.0114410  19.1852140  36.1750950  88.2917170
  18.9629380  37.6197070  88.6861360  28.2047800  39.2741060  85.9126720
  28.5812620  38.4012940  85.8000390  28.1067310  39.6099760  85.0217160
  22.3352810  37.6466690  81.3744160  22.4419560  38.5470420  81.6812920
  21.4245170  37.5984660  81.0838810  31.9871920  36.7691500  82.8455060
  32.8081540  36.2788070  82.8880540  32.0206000  37.3589160  83.5986900
  19.9835970  39.5685700  86.6196750  20.6646080  39.8324070  87.2384150
  19.6684020  38.7286570  86.9534760  24.1760540  40.6153060  85.7069340
  24.6838760  41.1134030  86.3474360  24.7073780  39.8388260  85.5308700
  36.2771470  38.7858250  89.4098690  35.5723640  39.1739960  88.8913800
  36.5429390  39.4808540  90.0119620  22.4596640  35.2551620  89.9732760
  22.4615080  35.7724010  89.1678660  21.6300950  34.7781800  89.9502690
  28.8467730  45.3670930  81.4722660  28.2285000  45.8320380  80.9085380
  29.3590980  46.0598410  81.8892170  23.7099490  44.8946800  88.1506260
  23.3768870  45.5215720  88.7927330  23.8866170  45.4208680  87.3707930
  32.2233400  38.7091880  85.6182600  31.5188970  38.9976770  86.1985710
  32.5845560  39.5191990  85.2582160  22.1411970  36.9661580  87.9803210
  22.4828780  37.8103630  87.6857080  21.2027780  37.1145320  88.0968550
  22.9218590  46.8627600  89.9655440  23.5392590  47.5378680  89.6839890
  22.0611710  47.2715580  89.8742940  18.2150930  46.0527460  78.8462290
  17.8378910  46.5414560  78.1147190  18.4724000  46.7252740  79.4768820
  33.8396180  48.3267010  87.8810080  33.1559700  48.9966120  87.8726750
  34.3790470  48.5247660  87.1154940  35.2920320  38.1546670  86.0091810
  34.3445230  38.1885650  86.1407240  35.6170310  38.9685620  86.3941170
  25.8239860  34.4543850  84.3047800  26.1314840  33.8990740  83.5883300
  24.8940560  34.5888310  84.1220790  31.3754920  50.1711140  86.5955260
  31.3882080  49.7673430  85.7277520  30.8230140  50.9458430  86.4916690
  32.6700340  46.8927360  81.6845430  32.5596670  45.9501690  81.8094850
  32.6668590  47.2543000  82.5708190  30.7740360  45.0740980  87.9237870
  31.1909150  44.8601090  87.0891330  31.4980180  45.3313770  88.4946490
  28.2120620  42.5192680  81.0407920  27.2849900  42.4530060  81.2696390
  28.3645440  43.4572810  80.9263160  28.1989700  38.7909680  78.0375080
  27.2593370  38.9523640  78.1227540  28.5172960  39.5095360  77.4911070
  34.7202460  43.4728200  88.0154110  33.8921090  43.5421290  87.5404240
  35.3152940  44.0582510  87.5469940  32.2417910  44.0812980  81.5443170
  31.6230330  43.7432530  80.8969470  32.2242360  43.4372740  82.2522360
  31.6844470  40.2597520  88.9608980  31.2715650  41.0851230  89.2148970
  30.9520420  39.6742560  88.7685340  23.8177260  43.0457420  83.8227650
  23.4134260  42.3334670  83.3273550  23.9040380  42.7010660  84.7115690
  24.2858960  46.7324980  85.9866860  23.9887250  46.1270450  85.3074640
  25.2358780  46.7702290  85.8756220  22.5305880  39.8200630  87.6026690
  23.0820470  39.9295970  86.8279940  23.0449390  40.1938230  88.3181920
  32.3744570  50.3056850  89.6489960  31.8975130  51.1129040  89.4562570
  31.6906360  49.6535180  89.8016170  23.3777390  46.4706670  92.6374660
  22.4805920  46.6946640  92.8848060  23.4030260  46.5941610  91.6886060
  22.2048610  43.3419990  91.2132030  22.0656380  44.2142790  91.5819430
  21.3229970  42.9992800  91.0679970  28.5277990  48.2595860  82.5197160
  28.9673900  49.0020190  82.1052550  28.4664880  48.5022430  83.4436120
  24.0028960  49.2841690  93.4217180  23.9744390  49.6884640  92.5545610
  23.8393930  48.3552050  93.2588780  33.9999750  34.5742600  76.8656960
  33.6872410  34.6669430  77.7656030  34.7612220  35.1523630  76.8154390
  20.5181890  41.9402400  81.3234300  20.3979490  42.6664490  80.7115570
  20.2082780  41.1705310  80.8462210  18.1567260  45.1117540  87.1302940
  18.2347680  45.2466310  86.1858660  18.7708940  44.4033430  87.3231060
  19.4014890  46.8117730  83.5409120  18.9942970  46.9532320  82.6862720
  20.2927900  46.5277890  83.3380330  35.3577030  47.2581640  91.8781360
  35.4840090  47.0193520  90.9598540  35.3998410  46.4266180  92.3503440
  29.2193770  50.9609640  90.4476170  29.7338440  50.8717650  91.2498600
  28.3762850  51.3069340  90.7404080  31.1948170  51.2464980  79.8760170
  31.0349310  50.9567920  80.7742000  31.0294880  50.4705110  79.3405400
  23.6736550  51.0263510  81.6531790  23.4979030  50.1099050  81.4399590
  22.8192290  51.3850800  81.8929590  30.8974300  48.7552540  78.4358170
  30.2039460  48.7529830  77.7760450  31.6397160  48.3311860  78.0052340
  30.4624230  50.3815250  82.5106660  30.9181180  49.6004630  82.8245280
  30.8016750  51.0922070  83.0547840  35.2101040  39.3114100  92.8431100
  34.5945310  39.8193770  92.3146560  34.8897460  38.4112430  92.7857040
  18.2126780  46.1531710  89.6697400  18.3757820  45.6837070  88.8516770
  18.6779230  45.6455270  90.3346240  22.9845550  35.2837470  84.7057970
  22.5413700  36.0647010  84.3742490  23.5430540  35.6067360  85.4128910
  27.2715360  38.1505990  90.3093290  26.8094730  38.3589010  91.1213230
  26.8693470  37.3365340  90.0063960  32.2719870  39.3714940  91.4389950
  31.4213460  39.0720690  91.7599020  32.1121660  39.6156950  90.5273770
  29.3669580  40.8716690  93.5388740  29.6922990  40.0380440  93.1990970
  30.1549910  41.3945210  93.6867070  26.1004370  34.9048170  79.5863800
  25.4758550  34.9008040  80.3117110  26.0134490  34.0379130  79.1899770
  25.0221450  35.8284800  86.5647570  25.3193780  36.7347630  86.4839590
  25.5707010  35.3403580  85.9507140  22.7759770  40.4071040  82.4339220
  22.5500690  40.1908210  83.3385840  21.9952300  40.8399500  82.0885190
  30.0057530  40.4134410  81.0329870  29.4066420  41.1370210  80.8493490
  30.5537140  40.3511190  80.2506320  25.2158980  41.3056620  93.0999490
  25.1202580  40.3651350  92.9499890  26.0590960  41.5271690  92.7047560
  28.6122400  39.0497950  83.0633150  29.0051970  39.3670150  82.2501840
  28.9739250  38.1709830  83.1777670  20.3469520  37.7170290  91.2533270
  19.9532910  38.5645500  91.4606050  19.6587920  37.0796660  91.4441910
  17.6486570  35.6398750  85.2863350  17.3599620  36.2101610  85.9988330
  18.3932330  35.1603200  85.6494580  17.8356800  39.5818870  76.4966070
  17.7531470  40.5249630  76.6381060  17.4839860  39.4393780  75.6178420
  29.1977540  41.6403700  87.1583930  28.4658660  42.1490510  87.5074030
  28.8001880  40.8233680  86.8572710  25.6354930  38.3157900  85.5636420
  25.6390990  37.8747850  84.7140960  26.5306050  38.6375230  85.6708240
  21.4857310  38.1984390  84.5230630  21.1457360  38.6759620  85.2797680
  20.7234630  37.7449510  84.1631730  25.6975080  39.3169980  78.5543180
  25.8187900  39.2756460  79.5029000  25.3123590  40.1794130  78.3989910
  29.6603450  37.0937380  86.5706870  29.6776190  37.5446030  87.4148720
  29.4119030  36.1943020  86.7840310  24.7096580  41.6271120  77.9526480
  24.1413480  41.1789370  77.3262390  25.4185580  41.9863900  77.4191630
  33.0874200  34.5069560  92.4093250  33.4119970  33.7759220  92.9351230
  33.1230710  34.1883200  91.5074240  19.7865760  45.5283140  91.8293210
  19.4020550  44.8876810  92.4276170  20.0977950  46.2319260  92.3987940
  25.9362900  42.3759680  87.3101830  26.3033030  41.9018250  88.0563170
  25.7467960  43.2501250  87.6510170  18.8003390  37.1203370  83.4395300
  18.5150310  36.7559040  84.2773920  18.7382250  36.3883830  82.8258440
  23.7262270  41.4168320  89.6286040  23.4219340  42.2960300  89.8536400
  24.6808730  41.4768110  89.6643480  22.2544060  45.6229310  80.2252890
  21.4806320  45.0826930  80.0651610  22.9838690  45.1035920  79.8870650
  33.0132040  44.6194670  86.0179280  33.7331160  45.1149960  85.6275390
  32.8113860  43.9412560  85.3733150  28.4741980  36.0132630  80.1608670
  27.6606590  35.5145800  80.0853980  28.2803930  36.8530880  79.7445020
  28.3950840  44.6903730  91.9048280  28.3288150  43.7699400  91.6505870
  27.7655980  44.7879170  92.6192920  31.1890370  40.3852280  78.4570830
  32.0769990  40.6969510  78.2822170  31.1595460  39.5124530  78.0651410
  22.2981460  45.2909690  83.8631700  22.8160130  44.4877950  83.8088590
  21.8465480  45.2288830  84.7048530  27.1850960  46.5575970  79.1359000
  27.5266660  47.3018200  78.6402320  26.3563670  46.8707090  79.4983830
  19.7826000  42.2571060  90.7757400  19.4240940  42.9224910  91.3630740
  19.4880560  41.4254610  91.1470020  22.9839120  42.7155300  93.6596950
  22.6839260  42.8612480  92.7624770  23.7550360  42.1560590  93.5670340
  28.3267570  47.5124300  91.6552080  28.3412110  46.5805260  91.4370990
  27.6192670  47.5984060  92.2941850  34.5378780  44.1531640  91.0020660
  33.8126970  44.7460420  90.8050050  35.0654240  44.1455180  90.2034030
  34.4891890  48.5506380  80.6532820  33.8468050  47.8962000  80.9276540
  34.1022550  48.9561470  79.8773490  30.0678370  45.8791810  84.5004510
  30.4202190  45.2819940  83.8405880  29.1840700  45.5536040  84.6712760
  26.1541650  46.6389500  81.9074920  26.8412780  47.1858710  82.2882510
  25.3674070  47.1830230  81.9424530  18.2934050  42.2562320  77.3992000
  19.1628900  42.5387120  77.6827920  17.8024370  43.0698190  77.2840810
  25.4568860  43.6435530  81.5200280  25.9131640  44.4540780  81.7460470
  25.1057070  43.3258670  82.3518770  27.7601470  49.1541870  88.7492580
  28.4043690  49.3601250  89.4266000  28.1230910  48.3930270  88.2963430
  21.3580640  33.9873180  81.9922800  21.2295270  33.9791080  82.9407720
  20.5342660  34.3256270  81.6413810  29.0333550  47.1574220  87.4670030
  29.6755780  46.4567380  87.5802200  29.5582900  47.9372660  87.2866920
  30.8071170  47.9569120  90.6706090  31.1427410  48.5435810  91.3484010
  29.8871510  47.8261830  90.9003880  18.6605300  51.4689700  77.9653630
  19.0202940  52.0679040  77.3110900  18.5197640  52.0149590  78.7388660
  18.3574570  35.7464300  91.4529500  17.6433090  35.9461220  92.0582110
  18.7769610  34.9703870  91.8244300  18.6447160  49.7344560  92.4396030
  18.7538280  48.7939300  92.2991420  17.9927720  49.9999310  91.7909760
  24.6773920  48.8520900  78.7827300  24.6684020  49.5850590  78.1671810
  23.7572280  48.6052480  78.8754260  20.2780560  44.0735790  79.5274060
  19.6708510  44.8134690  79.5369360  20.7529910  44.1635150  78.7012260
  29.8513350  38.2386610  89.2030950  30.2194170  37.4181820  89.5310520
  28.9911550  38.2988500  89.6186600  33.2175380  37.1943550  80.0118510
  32.5888540  37.2989220  79.2976740  32.7227300  37.4140330  80.8012390
  27.6633520  48.9149140  77.4452490  27.7645500  48.7113130  76.5154470
  26.7635260  48.6607420  77.6500270  25.1859410  39.4729500  81.4276390
  24.4775560  39.9415840  81.8690000  25.4703890  38.8151510  82.0621580
  26.8115340  40.8926200  89.4268920  27.3100590  41.3672020  90.0920770
  26.9538290  39.9689720  89.6338950  29.2174840  36.1980160  82.8672180
  29.0942620  36.2166290  81.9181690  30.1659400  36.2459100  82.9870580
  26.3051630  51.4335460  82.1400160  26.5593130  51.3956850  81.2179530
  25.3564110  51.3068790  82.1328410  23.3894430  37.7814580  78.8027100
  24.2384960  38.2184730  78.7367290  23.0225700  38.0934840  79.6299160
  34.0182200  37.1094160  90.2697310  33.5155800  37.8499560  90.6091120
  34.8338860  37.4978160  89.9534100  32.3104210  42.3527340  83.7158670
  31.3694350  42.3677570  83.8906360  32.6248280  41.5663300  84.1618970
  22.2885850  44.0346940  77.2762630  23.0549120  43.9228300  77.8388060
  22.3660540  43.3384910  76.6239400  20.9832610  41.4672010  77.9595520
  21.0636200  40.5199520  78.0712920  21.8752360  41.7978890  78.0656180
  34.3129790  49.5236190  85.3912930  34.4377210  50.3467360  85.8636740
  35.1795350  49.3126920  85.0437080  21.7847320  51.6167400  85.0630060
  22.5209800  51.0682860  85.3338630  22.1688240  52.4823410  84.9236050
  18.6692800  47.6840970  80.9371570  17.7432580  47.9262110  80.9276980
  19.1349230  48.5115230  80.8156320  24.8949630  50.7897710  76.8855630
  25.6878240  51.0786540  76.4337420  24.3753980  50.3589880  76.2068110
  31.0570600  50.6373630  92.8100460  32.0092350  50.5531650  92.7600700
  30.9098820  51.3015340  93.4834250  33.9479800  50.0167840  78.3092370
  33.6621310  49.6032980  77.4946550  33.7499350  50.9455550  78.1892890
  18.5103410  43.2886930  93.1951690  19.0142430  42.7094210  93.7667920
  17.7710830  43.5727160  93.7328060  25.4127030  46.0101120  76.7497980
  25.3077670  45.3953470  77.4759360  25.2451250  45.4867010  75.9660990
  25.5641350  44.6957920  92.7287210  24.7987020  45.2642920  92.6441880
  25.7457310  44.4034130  91.8355440  28.6529760  45.0721150  77.3539970
  28.1039860  45.5190450  77.9982710  29.2749020  44.5670400  77.8777640
  32.7064700  46.4263250  93.2862230  33.4474170  46.7639010  92.7829690
  31.9437380  46.5955310  92.7332000  24.3204880  44.0312070  79.2505270
  24.7421300  43.8651940  80.0936660  24.4455720  43.2212300  78.7560410
  22.4832300  40.0108620  92.0576250  21.9528760  39.5199570  91.4299590
  23.1520370  40.4392820  91.5234180  26.8332520  43.0549680  76.4982370
  27.3538180  42.3398700  76.1323520  27.4800920  43.6935550  76.7982880
  31.3810360  44.4778080  91.8217440  31.7951380  44.6323160  92.6707860
  30.4461360  44.6033300  91.9843220  31.8532530  41.8174240  93.8256590
  32.4353300  41.0626560  93.7377070  32.0294300  42.3481680  93.0488070
  22.9704600  36.9770990  92.1373540  22.8761470  36.3591740  91.4124410
  22.3901990  37.7037280  91.9103450  25.7366040  35.5344230  89.1700930
  25.2883340  35.5568490  88.3246480  25.1031240  35.1363250  89.7671230
  26.1425590  44.4298560  89.7913370  26.5613700  45.2731290  89.6189610
  25.2234220  44.5670600  89.5620150  28.4789490  42.1614740  91.1751210
  28.5985700  41.5655880  91.9146050  29.3383490  42.1984430  90.7552510
  30.8177390  42.7151930  89.7513720  30.2912610  43.2394550  89.1478860
  31.1608730  43.3479320  90.3823450  23.2163780  40.1045300  76.1963430
  23.0152840  39.2412660  76.5576770  23.0455830  40.0178660  75.2585030
  23.9933010  50.7351570  90.9071100  23.4554100  51.4597630  90.5879800
  24.2466970  50.2581910  90.1168440  25.2458260  38.7036090  92.4327030
  25.8357950  38.3951940  93.1204850  24.4278500  38.2315840  92.5886930
  30.0651690  38.3201900  92.6660050  29.3767210  37.6583440  92.6010040
  30.7857710  37.8740170  93.1108510  30.6952090  34.9153530  78.7250310
  30.9754380  34.0721430  79.0809730  29.9217820  35.1476640  79.2389060
  22.0146580  37.2045920  76.1841310  22.3172480  37.2113350  75.2760460
  22.7541170  36.8543780  76.6808970  26.8495220  51.9702780  91.1657750
  26.7753920  52.8737920  91.4730120  25.9474060  51.6514680  91.1379820
  25.2331510  36.1480540  77.1697510  24.8853510  35.4704530  76.5899960
  25.4344280  35.6870050  77.9840900  27.3980550  51.1361290  78.7884110
  28.2931340  51.4746260  78.8102870  27.4298180  50.4140700  78.1608390
  21.0376710  46.5088340  77.0171110  21.4751580  47.0518010  77.6728690
  21.5224440  45.6835290  77.0267450  18.2522510  49.2977370  84.4691370
  18.5825520  48.4298430  84.2370010  18.6813510  49.5035890  85.2996330
  22.8484430  47.6286380  82.1293340  22.5479970  47.5051350  83.0297250
  22.7421920  46.7694970  81.7209070  18.7412720  50.1647960  87.2073000
  18.3043710  50.3448760  88.0397150  19.3090400  50.9222580  87.0654720
  34.3774900  49.6664960  91.4950310  33.7776890  49.7257520  90.7514230
  34.5068800  48.7269940  91.6247160  18.5737150  42.6768190  83.5661880
  17.9185990  42.4079830  82.9221580  19.4115100  42.5672670  83.1163860
  36.0792780  45.0080360  84.1796150  36.4501610  44.2247680  83.7732120
  36.7194710  45.6969460  84.0013450  33.0626540  46.3916940  89.5926470
  32.2486380  46.8214100  89.8552260  33.4700740  47.0035350  88.9795520
  31.5227590  37.4709480  77.7880370  31.9412470  37.2840460  76.9477030
  31.2163650  36.6188530  78.0983300  35.0217320  42.3833620  81.4856170
  34.6460920  41.6161550  81.0537460  34.2920440  42.7656320  81.9731100
  19.6113080  43.0620760  88.1065220  19.9786120  42.9748160  88.9861240
  19.0423900  42.2987310  88.0072080  34.4116940  41.5305140  91.1195690
  34.1803030  41.3017890  90.2193640  34.6721490  42.4504690  91.0740580
  19.1629080  39.9729850  92.0123640  18.2685130  39.9396610  92.3517350
  19.7026630  40.1716640  92.7774890  17.7875230  39.8867120  79.5087210
  16.8839310  40.1497320  79.3338870  18.2715850  40.1578290  78.7287170
  34.2968280  40.6091110  84.7863410  34.8205760  40.1153760  84.1553580
  34.8827700  40.7441470  85.5310980  34.4758000  40.6930980  88.3082960
  33.5260710  40.6594520  88.4227950  34.6571010  41.6031090  88.0732730
  20.3302440  38.9432660  77.4181590  21.0394140  38.5215880  76.9328870
  19.6142380  39.0107890  76.7864940  19.9776600  34.9971990  76.4584240
  20.7004730  35.5380930  76.7765460  20.2501120  34.7235410  75.5825780
  19.6668790  34.2478180  86.3606860  20.3144980  33.6975560  85.9202020
  20.0870630  34.5021330  87.1822670  35.2155410  38.5025410  83.2593500
  35.1054690  38.3481450  84.1975770  35.9763000  37.9746350  83.0168910
  33.5621130  34.4419540  89.7176500  34.1993350  35.0553680  90.0835690
  33.7096020  34.4780200  88.7725730  36.1784170  37.1043990  79.1256350
  35.3835670  37.0389110  79.6549260  36.3827450  38.0394630  79.1141700
  33.1202590  51.1435540  83.1194740  33.7161660  50.8220110  82.4429160
  33.3780740  50.6707360  83.9108010  19.4200790  34.4033850  89.1032180
  19.0715610  34.8597670  89.8690360  19.0888490  33.5090980  89.1854610
  24.7271190  49.1313040  88.8695090  24.4862550  49.3987600  87.9825610
  25.6673830  49.3018770  88.9245950  26.9325610  35.5945730  92.6251600
  26.8714500  36.1867560  93.3747010  27.8725990  35.4871690  92.4801860
  29.5700170  35.2515790  92.2643890  30.1840580  35.5695080  91.6024970
  30.1149730  34.7664380  92.8839750  35.9875350  51.1507420  89.6705730
  35.4933630  51.5476290  88.9532860  35.3788640  50.5256630  90.0643010
  20.0921430  33.9310050  92.3782950  20.6404420  33.7498100  91.6149060
  20.1576740  33.1404160  92.9139260  20.8653190  50.5215700  90.3883150
  20.2713510  50.3900400  91.1273190  20.8577030  49.6853840  89.9225250
  30.3108210  33.8147930  88.5913180  29.4368050  34.1483040  88.3886110
  30.2018960  33.3421110  89.4165050  31.2180190  36.0218800  89.9754900
  30.8893550  35.2070560  89.5956630  32.1662490  35.9788610  89.8520590
  33.6714800  51.7930840  86.9492470  33.2117770  52.5446650  86.5750490
  33.0427260  51.0737310  86.8907270  20.4965420  47.8874080  89.3391190
  19.7699480  47.2679370  89.2717140  20.5574570  48.2814690  88.4689270
  24.1010520  50.1019080  86.1240600  24.6175540  49.4906440  85.5988860
  24.7507900  50.6047860  86.6151610  26.8406020  50.9927570  86.9509580
  27.1283830  50.7381870  86.0742590  27.3529240  50.4404930  87.5415150
  28.0583030  34.7317770  87.5306090  27.2754820  35.2063270  87.8102850
  27.7645960  33.8272600  87.4219270  32.6104100  35.4340870  85.5755180
  33.0512190  35.3785970  84.7276780  32.3411690  36.3498880  85.6465360
  34.4742670  35.0656110  83.5864000  34.4131070  34.1217330  83.4395020
  35.2534700  35.1736200  84.1317460  18.7795420  51.2048470  82.5487950
  18.6117460  50.5719150  83.2469840  17.9129930  51.4107870  82.1982140
  19.4023440  35.0365250  80.0519810  20.1602800  35.1494130  79.4783840
  18.9400610  35.8734450  80.0063240  25.9437250  37.1504520  83.0422120
  25.1311760  36.7761410  82.7018000  26.4478890  36.3949600  83.3443310
  30.4462230  33.8146970  84.2805190  31.0491600  34.3867180  84.7553710
  29.7055220  34.3786410  84.0579090  33.5896830  34.2168530  79.5545470
  33.7847460  35.1151980  79.8212900  32.8026700  33.9855610  80.0478420
  20.3858120  49.8981700  79.9938090  19.8605740  50.2789730  79.2900050
  20.3102700  50.5232470  80.7147800  21.7748590  35.5629300  78.5921780
  22.3041350  34.7759100  78.4629730  22.4076910  36.2420490  78.8257310
  23.9686430  35.3004440  81.6467170  23.3389170  34.5991750  81.8137300
  23.4291570  36.0608570  81.4300330  35.1423440  51.4569240  81.3152030
  35.3175630  50.7706980  80.6712950  34.4445010  51.9816290  80.9228700
  22.9851090  51.8464080  78.8687340  23.7169910  51.5623360  78.3211230
  23.2444760  51.6077360  79.7586720  22.1465880  47.9628810  78.8733670
  21.5174760  48.4313910  79.4219500  22.2613710  47.1178030  79.3079860
  21.7499470  44.1033300  67.7819900  20.9184350  43.8482010  68.1816410
  22.3580450  44.1744070  68.5177820  20.1591420  39.0635190  61.5662290
  19.2708120  39.4051160  61.4642170  20.4432610  38.8635510  60.6743120
  18.1224430  41.6640840  67.4501990  18.6940540  40.8963040  67.4505630
  18.1225970  41.9629600  66.5408600  19.3649300  37.0725200  69.2370920
  19.1852140  36.1750950  69.5173680  18.9629380  37.6197070  69.9117870
  28.2047800  39.2741060  67.1383230  28.5812620  38.4012940  67.0256900
  28.1067310  39.6099760  66.2473670  22.3352810  37.6466690  62.6000670
  22.4419560  38.5470420  62.9069430  21.4245170  37.5984660  62.3095320
  31.9871920  36.7691500  64.0711570  32.8081540  36.2788070  64.1137050
  32.0206000  37.3589160  64.8243410  19.9835970  39.5685700  67.8453260
  20.6646080  39.8324070  68.4640660  19.6684020  38.7286570  68.1791270
  24.1760540  40.6153060  66.9325850  24.6838760  41.1134030  67.5730870
  24.7073780  39.8388260  66.7565210  22.4596640  35.2551620  71.1989270
  22.4615080  35.7724010  70.3935170  21.6300950  34.7781800  71.1759200
  23.7099490  44.8946800  69.3762770  23.3768870  45.5215720  70.0183840
  23.8866170  45.4208680  68.5964440  32.2233400  38.7091880  66.8439110
  31.5188970  38.9976770  67.4242220  32.5845560  39.5191990  66.4838670
  22.1411970  36.9661580  69.2059720  22.4828780  37.8103630  68.9113590
  21.2027780  37.1145320  69.3225060  22.9218590  46.8627600  71.1911950
  23.5392590  47.5378680  70.9096400  22.0611710  47.2715580  71.0999450
  25.8239860  34.4543850  65.5304310  26.1314840  33.8990740  64.8139810
  24.8940560  34.5888310  65.3477300  28.1989700  38.7909680  59.2631590
  27.2593370  38.9523640  59.3484050  28.5172960  39.5095360  58.7167580
  31.6844470  40.2597520  70.1865490  31.2715650  41.0851230  70.4405480
  30.9520420  39.6742560  69.9941850  24.2858960  46.7324980  67.2123370
  23.9887250  46.1270450  66.5331150  25.2358780  46.7702290  67.1012730
  22.5305880  39.8200630  68.8283200  23.0820470  39.9295970  68.0536450
  23.0449390  40.1938230  69.5438430  23.3777390  46.4706670  73.8631170
  22.4805920  46.6946640  74.1104570  23.4030260  46.5941610  72.9142570
  22.2048610  43.3419990  72.4388540  22.0656380  44.2142790  72.8075940
  21.3229970  42.9992800  72.2936480  24.0028960  49.2841690  74.6473690
  23.9744390  49.6884640  73.7802120  23.8393930  48.3552050  74.4845290
  20.5181890  41.9402400  62.5490810  20.3979490  42.6664490  61.9372080
  20.2082780  41.1705310  62.0718720  18.1567260  45.1117540  68.3559450
  18.2347680  45.2466310  67.4115170  18.7708940  44.4033430  68.5487570
  18.2126780  46.1531710  70.8953910  18.3757820  45.6837070  70.0773280
  18.6779230  45.6455270  71.5602750  22.9845550  35.2837470  65.9314480
  22.5413700  36.0647010  65.5999000  23.5430540  35.6067360  66.6385420
  27.2715360  38.1505990  71.5349800  26.8094730  38.3589010  72.3469740
  26.8693470  37.3365340  71.2320470  32.2719870  39.3714940  72.6646460
  31.4213460  39.0720690  72.9855530  32.1121660  39.6156950  71.7530280
  29.3669580  40.8716690  74.7645250  29.6922990  40.0380440  74.4247480
  30.1549910  41.3945210  74.9123580  26.1004370  34.9048170  60.8120310
  25.4758550  34.9008040  61.5373620  26.0134490  34.0379130  60.4156280
  25.0221450  35.8284800  67.7904080  25.3193780  36.7347630  67.7096100
  25.5707010  35.3403580  67.1763650  22.7759770  40.4071040  63.6595730
  22.5500690  40.1908210  64.5642350  21.9952300  40.8399500  63.3141700
  25.2158980  41.3056620  74.3256000  25.1202580  40.3651350  74.1756400
  26.0590960  41.5271690  73.9304070  28.6122400  39.0497950  64.2889660
  29.0051970  39.3670150  63.4758350  28.9739250  38.1709830  64.4034180
  20.3469520  37.7170290  72.4789780  19.9532910  38.5645500  72.6862560
  19.6587920  37.0796660  72.6698420  26.9214570  37.8005260  75.5486520
  26.2312890  37.6077460  76.1832610  27.6646870  38.0839900  76.0810820
  17.6486570  35.6398750  66.5119860  17.3599620  36.2101610  67.2244840
  18.3932330  35.1603200  66.8751090  17.8356800  39.5818870  57.7222580
  17.7531470  40.5249630  57.8637570  17.4839860  39.4393780  56.8434930
  29.1977540  41.6403700  68.3840440  28.4658660  42.1490510  68.7330540
  28.8001880  40.8233680  68.0829220  25.6354930  38.3157900  66.7892930
  25.6390990  37.8747850  65.9397470  26.5306050  38.6375230  66.8964750
  21.4857310  38.1984390  65.7487140  21.1457360  38.6759620  66.5054190
  20.7234630  37.7449510  65.3888240  25.6975080  39.3169980  59.7799690
  25.8187900  39.2756460  60.7285510  25.3123590  40.1794130  59.6246420
  29.6603450  37.0937380  67.7963380  29.6776190  37.5446030  68.6405230
  29.4119030  36.1943020  68.0096820  33.0874200  34.5069560  73.6349760
  33.4119970  33.7759220  74.1607740  33.1230710  34.1883200  72.7330750
  19.7865760  45.5283140  73.0549720  19.4020550  44.8876810  73.6532680
  20.0977950  46.2319260  73.6244450  25.9362900  42.3759680  68.5358340
  26.3033030  41.9018250  69.2819680  25.7467960  43.2501250  68.8766680
  18.8003390  37.1203370  64.6651810  18.5150310  36.7559040  65.5030430
  18.7382250  36.3883830  64.0514950  23.7262270  41.4168320  70.8542550
  23.4219340  42.2960300  71.0792910  24.6808730  41.4768110  70.8899990
  28.4741980  36.0132630  61.3865180  27.6606590  35.5145800  61.3110490
  28.2803930  36.8530880  60.9701530  28.3950840  44.6903730  73.1304790
  28.3288150  43.7699400  72.8762380  27.7655980  44.7879170  73.8449430
  22.2981460  45.2909690  65.0888210  22.8160130  44.4877950  65.0345100
  21.8465480  45.2288830  65.9305040  19.7826000  42.2571060  72.0013910
  19.4240940  42.9224910  72.5887250  19.4880560  41.4254610  72.3726530
  22.9839120  42.7155300  74.8853460  22.6839260  42.8612480  73.9881280
  23.7550360  42.1560590  74.7926850  28.3267570  47.5124300  72.8808590
  28.3412110  46.5805260  72.6627500  27.6192670  47.5984060  73.5198360
  18.2934050  42.2562320  58.6248510  19.1628900  42.5387120  58.9084430
  17.8024370  43.0698190  58.5097320  21.3580640  33.9873180  63.2179310
  21.2295270  33.9791080  64.1664230  20.5342660  34.3256270  62.8670320
  30.8071170  47.9569120  71.8962600  31.1427410  48.5435810  72.5740520
  29.8871510  47.8261830  72.1260390  18.3574570  35.7464300  72.6786010
  17.6433090  35.9461220  73.2838620  18.7769610  34.9703870  73.0500810
  18.6447160  49.7344560  73.6652540  18.7538280  48.7939300  73.5247930
  17.9927720  49.9999310  73.0166270  26.6359750  48.0060450  75.0650660
  26.3156620  47.2869690  75.6096350  25.9618110  48.6815520  75.1386720
  29.8513350  38.2386610  70.4287460  30.2194170  37.4181820  70.7567030
  28.9911550  38.2988500  70.8443110  26.8115340  40.8926200  70.6525430
  27.3100590  41.3672020  71.3177280  26.9538290  39.9689720  70.8595460
  29.2174840  36.1980160  64.0928690  29.0942620  36.2166290  63.1438200
  30.1659400  36.2459100  64.2127090  23.3894430  37.7814580  60.0283610
  24.2384960  38.2184730  59.9623800  23.0225700  38.0934840  60.8555670
  34.0182200  37.1094160  71.4953820  33.5155800  37.8499560  71.8347630
  34.8338860  37.4978160  71.1790610  20.9832610  41.4672010  59.1852030
  21.0636200  40.5199520  59.2969430  21.8752360  41.7978890  59.2912690
  20.7905600  50.8013470  75.4772150  21.5918330  51.1225520  75.8907550
  20.2757420  50.4409050  76.1992060  29.6270230  46.9093340  75.4247560
  29.0208390  46.9324940  74.6843310  29.3224340  46.1776380  75.9614810
  31.0570600  50.6373630  74.0356970  32.0092350  50.5531650  73.9857210
  30.9098820  51.3015340  74.7090760  18.5103410  43.2886930  74.4208200
  19.0142430  42.7094210  74.9924430  17.7710830  43.5727160  74.9584570
  25.5641350  44.6957920  73.9543720  24.7987020  45.2642920  73.8698390
  25.7457310  44.4034130  73.0611950  20.5426490  41.4316520  75.3158270
  20.5831830  41.1330390  76.2243500  21.3971990  41.8324130  75.1565790
  22.4832300  40.0108620  73.2832760  21.9528760  39.5199570  72.6556100
  23.1520370  40.4392820  72.7490690  22.9704600  36.9770990  73.3630050
  22.8761470  36.3591740  72.6380920  22.3901990  37.7037280  73.1359960
  25.7366040  35.5344230  70.3957440  25.2883340  35.5568490  69.5502990
  25.1031240  35.1363250  70.9927740  26.1425590  44.4298560  71.0169880
  26.5613700  45.2731290  70.8446120  25.2234220  44.5670600  70.7876660
  28.4789490  42.1614740  72.4007720  28.5985700  41.5655880  73.1402560
  29.3383490  42.1984430  71.9809020  30.8177390  42.7151930  70.9770230
  30.2912610  43.2394550  70.3735370  31.1608730  43.3479320  71.6079960
  23.2163780  40.1045300  57.4219940  23.0152840  39.2412660  57.7833280
  23.0455830  40.0178660  56.4841540  23.9933010  50.7351570  72.1327610
  23.4554100  51.4597630  71.8136310  24.2466970  50.2581910  71.3424950
  25.2458260  38.7036090  73.6583540  25.8357950  38.3951940  74.3461360
  24.4278500  38.2315840  73.8143440  30.0651690  38.3201900  73.8916560
  29.3767210  37.6583440  73.8266550  30.7857710  37.8740170  74.3365020
  30.6952090  34.9153530  59.9506820  30.9754380  34.0721430  60.3066240
  29.9217820  35.1476640  60.4645570  22.0146580  37.2045920  57.4097820
  22.3172480  37.2113350  56.5016970  22.7541170  36.8543780  57.9065480
  26.8495220  51.9702780  72.3914260  26.7753920  52.8737920  72.6986630
  25.9474060  51.6514680  72.3636330  25.2331510  36.1480540  58.3954020
  24.8853510  35.4704530  57.8156470  25.4344280  35.6870050  59.2097410
  18.7412720  50.1647960  68.4329510  18.3043710  50.3448760  69.2653660
  19.3090400  50.9222580  68.2911230  18.5737150  42.6768190  64.7918390
  17.9185990  42.4079830  64.1478090  19.4115100  42.5672670  64.3420370
  19.6113080  43.0620760  69.3321730  19.9786120  42.9748160  70.2117750
  19.0423900  42.2987310  69.2328590  19.1629080  39.9729850  73.2380150
  18.2685130  39.9396610  73.5773860  19.7026630  40.1716640  74.0031400
  32.8505010  36.7561570  75.1231900  33.7275190  36.7644970  75.5065900
  32.8625850  36.0192410  74.5124250  17.7875230  39.8867120  60.7343720
  16.8839310  40.1497320  60.5595380  18.2715850  40.1578290  59.9543680
  20.3302440  38.9432660  58.6438100  21.0394140  38.5215880  58.1585380
  19.6142380  39.0107890  58.0121450  19.9776600  34.9971990  57.6840750
  20.7004730  35.5380930  58.0021970  20.2501120  34.7235410  56.8082290
  19.6668790  34.2478180  67.5863370  20.3144980  33.6975560  67.1458530
  20.0870630  34.5021330  68.4079180  33.5621130  34.4419540  70.9433010
  34.1993350  35.0553680  71.3092200  33.7096020  34.4780200  69.9982240
  19.4200790  34.4033850  70.3288690  19.0715610  34.8597670  71.0946870
  19.0888490  33.5090980  70.4111120  21.0265160  47.5753450  74.4941880
  20.9834790  47.2046360  75.3756340  21.1576170  48.5131020  74.6343700
  24.7271190  49.1313040  70.0951600  24.4862550  49.3987600  69.2082120
  25.6673830  49.3018770  70.1502460  26.9325610  35.5945730  73.8508110
  26.8714500  36.1867560  74.6003520  27.8725990  35.4871690  73.7058370
  29.5700170  35.2515790  73.4900400  30.1840580  35.5695080  72.8281480
  30.1149730  34.7664380  74.1096260  20.0921430  33.9310050  73.6039460
  20.6404420  33.7498100  72.8405570  20.1576740  33.1404160  74.1395770
  20.8653190  50.5215700  71.6139660  20.2713510  50.3900400  72.3529700
  20.8577030  49.6853840  71.1481760  30.3108210  33.8147930  69.8169690
  29.4368050  34.1483040  69.6142620  30.2018960  33.3421110  70.6421560
  31.2180190  36.0218800  71.2011410  30.8893550  35.2070560  70.8213140
  32.1662490  35.9788610  71.0777100  20.4965420  47.8874080  70.5647700
  19.7699480  47.2679370  70.4973650  20.5574570  48.2814690  69.6945780
  28.0583030  34.7317770  68.7562600  27.2754820  35.2063270  69.0359360
  27.7645960  33.8272600  68.6475780  32.6104100  35.4340870  66.8011690
  33.0512190  35.3785970  65.9533290  32.3411690  36.3498880  66.8721870
  34.4742670  35.0656110  64.8120510  34.4131070  34.1217330  64.6651530
  35.2534700  35.1736200  65.3573970  19.4023440  35.0365250  61.2776320
  20.1602800  35.1494130  60.7040350  18.9400610  35.8734450  61.2319750
  25.9437250  37.1504520  64.2678630  25.1311760  36.7761410  63.9274510
  26.4478890  36.3949600  64.5699820  30.4462230  33.8146970  65.5061700
  31.0491600  34.3867180  65.9810220  29.7055220  34.3786410  65.2835600
  21.7748590  35.5629300  59.8178290  22.3041350  34.7759100  59.6886240
  22.4076910  36.2420490  60.0513820  23.9686430  35.3004440  62.8723680
  23.3389170  34.5991750  63.0393810  23.4291570  36.0608570  62.6556840
  26.9078380  51.9143670  75.5434290  27.8345690  51.6787940  75.5870250
  26.8928810  52.7415670  75.0620320  24.0941990  34.5788420  75.3076170
  23.8126260  35.0822020  74.5436990  24.4761690  33.7810170  74.9418300
  30.6957450  33.9942000  75.8856640  30.5822900  34.3136610  76.7808160
  31.5127190  34.3954510  75.5893920  18.2150930  46.0527460  41.2975310
  17.8378910  46.5414560  40.5660210  18.4724000  46.7252740  41.9281840
  23.6736550  51.0263510  44.1044810  23.4979030  50.1099050  43.8912610
  22.8192290  51.3850800  44.3442610  30.8974300  48.7552540  40.8871190
  30.2039460  48.7529830  40.2273470  31.6397160  48.3311860  40.4565360
  26.9214570  37.8005260  56.7743030  26.2312890  37.6077460  57.4089120
  27.6646870  38.0839900  57.3067330  18.6605300  51.4689700  40.4166650
  19.0202940  52.0679040  39.7623920  18.5197640  52.0149590  41.1901680
  24.6773920  48.8520900  41.2340320  24.6684020  49.5850590  40.6184830
  23.7572280  48.6052480  41.3267280  20.2780560  44.0735790  41.9787080
  19.6708510  44.8134690  41.9882380  20.7529910  44.1635150  41.1525280
  27.6633520  48.9149140  39.8965510  27.7645500  48.7113130  38.9667490
  26.7635260  48.6607420  40.1013290  26.3051630  51.4335460  44.5913180
  26.5593130  51.3956850  43.6692550  25.3564110  51.3068790  44.5841430
  18.6692800  47.6840970  43.3884590  17.7432580  47.9262110  43.3790000
  19.1349230  48.5115230  43.2669340  24.8949630  50.7897710  39.3368650
  25.6878240  51.0786540  38.8850440  24.3753980  50.3589880  38.6581130
  25.4127030  46.0101120  39.2011000  25.3077670  45.3953470  39.9272380
  25.2451250  45.4867010  38.4174010  28.6529760  45.0721150  39.8052990
  28.1039860  45.5190450  40.4495730  29.2749020  44.5670400  40.3290660
  26.8332520  43.0549680  38.9495390  27.3538180  42.3398700  38.5836540
  27.4800920  43.6935550  39.2495900  25.7366040  35.5344230  51.6213950
  25.2883340  35.5568490  50.7759500  25.1031240  35.1363250  52.2184250
  27.3980550  51.1361290  41.2397130  28.2931340  51.4746260  41.2615890
  27.4298180  50.4140700  40.6121410  21.0376710  46.5088340  39.4684130
  21.4751580  47.0518010  40.1241710  21.5224440  45.6835290  39.4780470
  18.2522510  49.2977370  46.9204390  18.5825520  48.4298430  46.6883030
  18.6813510  49.5035890  47.7509350  22.8484430  47.6286380  44.5806360
  22.5479970  47.5051350  45.4810270  22.7421920  46.7694970  44.1722090
  18.7412720  50.1647960  49.6586020  18.3043710  50.3448760  50.4910170
  19.3090400  50.9222580  49.5167740  26.9325610  35.5945730  55.0764620
  26.8714500  36.1867560  55.8260030  27.8725990  35.4871690  54.9314880
  18.7795420  51.2048470  45.0000970  18.6117460  50.5719150  45.6982860
  17.9129930  51.4107870  44.6495160  20.3858120  49.8981700  42.4451110
  19.8605740  50.2789730  41.7413070  20.3102700  50.5232470  43.1660820
  24.0941990  34.5788420  56.5332680  23.8126260  35.0822020  55.7693500
  24.4761690  33.7810170  56.1674810  22.9851090  51.8464080  41.3200360
  23.7169910  51.5623360  40.7724250  23.2444760  51.6077360  42.2099740
  22.1465880  47.9628810  41.3246690  21.5174760  48.4313910  41.8732520
  22.2613710  47.1178030  41.7592880  30.6957450  33.9942000  57.1113150
  30.5822900  34.3136610  58.0064670  31.5127190  34.3954510  56.8150430
  29.6015600  42.0134470  27.4747890  29.5209650  41.0989080  27.2039600
  29.1880020  42.5101540  26.7687600  27.7333640  43.7913490  29.3557160
  26.9575740  43.3113930  29.6455730  28.3846570  43.1119140  29.1813320
  21.7499470  44.1033300  30.2332920  20.9184350  43.8482010  30.6329430
  22.3580450  44.1744070  30.9690840  31.7541070  48.1973680  28.1356290
  31.2922600  47.4260920  28.4643460  32.5666620  48.2239750  28.6408740
  21.7300730  48.1373390  30.4290940  22.0328770  47.2471130  30.2501160
  22.4744320  48.6943610  30.2013190  20.1591420  39.0635190  24.0175310
  19.2708120  39.4051160  23.9155190  20.4432610  38.8635510  23.1256140
  18.1224430  41.6640840  29.9015010  18.6940540  40.8963040  29.9018650
  18.1225970  41.9629600  28.9921620  27.9804380  50.4831690  27.7560280
  27.3615820  50.9389190  27.1854720  28.8356160  50.6383150  27.3549980
  27.1742630  46.4670680  29.3627320  27.1050910  45.5260620  29.2016450
  27.9362490  46.5572090  29.9349890  19.3649300  37.0725200  31.6883940
  19.1852140  36.1750950  31.9686700  18.9629380  37.6197070  32.3630890
  28.2047800  39.2741060  29.5896250  28.5812620  38.4012940  29.4769920
  28.1067310  39.6099760  28.6986690  22.3352810  37.6466690  25.0513690
  22.4419560  38.5470420  25.3582450  21.4245170  37.5984660  24.7608340
  31.9871920  36.7691500  26.5224590  32.8081540  36.2788070  26.5650070
  32.0206000  37.3589160  27.2756430  19.9835970  39.5685700  30.2966280
  20.6646080  39.8324070  30.9153680  19.6684020  38.7286570  30.6304290
  24.1760540  40.6153060  29.3838870  24.6838760  41.1134030  30.0243890
  24.7073780  39.8388260  29.2078230  28.8467730  45.3670930  25.1492190
  28.2285000  45.8320380  24.5854910  29.3590980  46.0598410  25.5661700
  23.7099490  44.8946800  31.8275790  23.3768870  45.5215720  32.4696860
  23.8866170  45.4208680  31.0477460  22.1411970  36.9661580  31.6572740
  22.4828780  37.8103630  31.3626610  21.2027780  37.1145320  31.7738080
  22.9218590  46.8627600  33.6424970  23.5392590  47.5378680  33.3609420
  22.0611710  47.2715580  33.5512470  18.2150930  46.0527460  22.5231820
  17.8378910  46.5414560  21.7916720  18.4724000  46.7252740  23.1538350
  33.8396180  48.3267010  31.5579610  33.1559700  48.9966120  31.5496280
  34.3790470  48.5247660  30.7924470  25.8239860  34.4543850  27.9817330
  26.1314840  33.8990740  27.2652830  24.8940560  34.5888310  27.7990320
  31.3754920  50.1711140  30.2724790  31.3882080  49.7673430  29.4047050
  30.8230140  50.9458430  30.1686220  32.6700340  46.8927360  25.3614960
  32.5596670  45.9501690  25.4864380  32.6668590  47.2543000  26.2477720
  30.7740360  45.0740980  31.6007400  31.1909150  44.8601090  30.7660860
  31.4980180  45.3313770  32.1716020  28.2120620  42.5192680  24.7177450
  27.2849900  42.4530060  24.9465920  28.3645440  43.4572810  24.6032690
  28.1989700  38.7909680  21.7144610  27.2593370  38.9523640  21.7997070
  28.5172960  39.5095360  21.1680600  32.2417910  44.0812980  25.2212700
  31.6230330  43.7432530  24.5739000  32.2242360  43.4372740  25.9291890
  23.8177260  43.0457420  27.4997180  23.4134260  42.3334670  27.0043080
  23.9040380  42.7010660  28.3885220  24.2858960  46.7324980  29.6636390
  23.9887250  46.1270450  28.9844170  25.2358780  46.7702290  29.5525750
  22.5305880  39.8200630  31.2796220  23.0820470  39.9295970  30.5049470
  23.0449390  40.1938230  31.9951450  32.3744570  50.3056850  33.3259490
  31.8975130  51.1129040  33.1332100  31.6906360  49.6535180  33.4785700
  23.3777390  46.4706670  36.3144190  22.4805920  46.6946640  36.5617590
  23.4030260  46.5941610  35.3655590  30.4182610  43.3199790  22.2285450
  30.8575890  42.4822220  22.0823270  31.1311030  43.9529190  22.3149590
  22.2048610  43.3419990  34.8901560  22.0656380  44.2142790  35.2588960
  21.3229970  42.9992800  34.7449500  28.5277990  48.2595860  26.1966690
  28.9673900  49.0020190  25.7822080  28.4664880  48.5022430  27.1205650
  24.0028960  49.2841690  37.0986710  23.9744390  49.6884640  36.2315140
  23.8393930  48.3552050  36.9358310  33.9999750  34.5742600  20.5426490
  33.6872410  34.6669430  21.4425560  34.7612220  35.1523630  20.4923920
  20.5181890  41.9402400  25.0003830  20.3979490  42.6664490  24.3885100
  20.2082780  41.1705310  24.5231740  18.1567260  45.1117540  30.8072470
  18.2347680  45.2466310  29.8628190  18.7708940  44.4033430  31.0000590
  19.4014890  46.8117730  27.2178650  18.9942970  46.9532320  26.3632250
  20.2927900  46.5277890  27.0149860  29.2193770  50.9609640  34.1245700
  29.7338440  50.8717650  34.9268130  28.3762850  51.3069340  34.4173610
  31.1948170  51.2464980  23.5529700  31.0349310  50.9567920  24.4511530
  31.0294880  50.4705110  23.0174930  23.6736550  51.0263510  25.3301320
  23.4979030  50.1099050  25.1169120  22.8192290  51.3850800  25.5699120
  30.8974300  48.7552540  22.1127700  30.2039460  48.7529830  21.4529980
  31.6397160  48.3311860  21.6821870  30.4624230  50.3815250  26.1876190
  30.9181180  49.6004630  26.5014810  30.8016750  51.0922070  26.7317370
  18.2126780  46.1531710  33.3466930  18.3757820  45.6837070  32.5286300
  18.6779230  45.6455270  34.0115770  22.9845550  35.2837470  28.3827500
  22.5413700  36.0647010  28.0512020  23.5430540  35.6067360  29.0898440
  26.1004370  34.9048170  23.2633330  25.4758550  34.9008040  23.9886640
  26.0134490  34.0379130  22.8669300  25.0221450  35.8284800  30.2417100
  25.3193780  36.7347630  30.1609120  25.5707010  35.3403580  29.6276670
  22.7759770  40.4071040  26.1108750  22.5500690  40.1908210  27.0155370
  21.9952300  40.8399500  25.7654720  30.0057530  40.4134410  24.7099400
  29.4066420  41.1370210  24.5263020  30.5537140  40.3511190  23.9275850
  25.2158980  41.3056620  36.7769020  25.1202580  40.3651350  36.6269420
  26.0590960  41.5271690  36.3817090  28.6122400  39.0497950  26.7402680
  29.0051970  39.3670150  25.9271370  28.9739250  38.1709830  26.8547200
  17.6486570  35.6398750  28.9632880  17.3599620  36.2101610  29.6757860
  18.3932330  35.1603200  29.3264110  17.8356800  39.5818870  20.1735600
  17.7531470  40.5249630  20.3150590  17.4839860  39.4393780  19.2947950
  29.1977540  41.6403700  30.8353460  28.4658660  42.1490510  31.1843560
  28.8001880  40.8233680  30.5342240  25.6354930  38.3157900  29.2405950
  25.6390990  37.8747850  28.3910490  26.5306050  38.6375230  29.3477770
  21.4857310  38.1984390  28.2000160  21.1457360  38.6759620  28.9567210
  20.7234630  37.7449510  27.8401260  25.6975080  39.3169980  22.2312710
  25.8187900  39.2756460  23.1798530  25.3123590  40.1794130  22.0759440
  29.6603450  37.0937380  30.2476400  29.6776190  37.5446030  31.0918250
  29.4119030  36.1943020  30.4609840  24.7096580  41.6271120  21.6296010
  24.1413480  41.1789370  21.0031920  25.4185580  41.9863900  21.0961160
  19.7865760  45.5283140  35.5062740  19.4020550  44.8876810  36.1045700
  20.0977950  46.2319260  36.0757470  25.9362900  42.3759680  30.9871360
  26.3033030  41.9018250  31.7332700  25.7467960  43.2501250  31.3279700
  18.8003390  37.1203370  27.1164830  18.5150310  36.7559040  27.9543450
  18.7382250  36.3883830  26.5027970  23.7262270  41.4168320  33.3055570
  23.4219340  42.2960300  33.5305930  24.6808730  41.4768110  33.3413010
  22.2544060  45.6229310  23.9022420  21.4806320  45.0826930  23.7421140
  22.9838690  45.1035920  23.5640180  33.0132040  44.6194670  29.6948810
  33.7331160  45.1149960  29.3044920  32.8113860  43.9412560  29.0502680
  28.4741980  36.0132630  23.8378200  27.6606590  35.5145800  23.7623510
  28.2803930  36.8530880  23.4214550  28.3950840  44.6903730  35.5817810
  28.3288150  43.7699400  35.3275400  27.7655980  44.7879170  36.2962450
  31.1890370  40.3852280  22.1340360  32.0769990  40.6969510  21.9591700
  31.1595460  39.5124530  21.7420940  22.2981460  45.2909690  27.5401230
  22.8160130  44.4877950  27.4858120  21.8465480  45.2288830  28.3818060
  27.1850960  46.5575970  22.8128530  27.5266660  47.3018200  22.3171850
  26.3563670  46.8707090  23.1753360  28.3267570  47.5124300  35.3321610
  28.3412110  46.5805260  35.1140520  27.6192670  47.5984060  35.9711380
  33.4604640  41.6964120  21.6020220  33.3768360  42.1278340  20.7516660
  34.1798830  42.1562470  22.0347040  34.4891890  48.5506380  24.3302350
  33.8468050  47.8962000  24.6046070  34.1022550  48.9561470  23.5543020
  30.0678370  45.8791810  28.1774040  30.4202190  45.2819940  27.5175410
  29.1840700  45.5536040  28.3482290  26.1541650  46.6389500  25.5844450
  26.8412780  47.1858710  25.9652040  25.3674070  47.1830230  25.6194060
  18.2934050  42.2562320  21.0761530  19.1628900  42.5387120  21.3597450
  17.8024370  43.0698190  20.9610340  25.4568860  43.6435530  25.1969810
  25.9131640  44.4540780  25.4230000  25.1057070  43.3258670  26.0288300
  27.7601470  49.1541870  32.4262110  28.4043690  49.3601250  33.1035530
  28.1230910  48.3930270  31.9732960  21.3580640  33.9873180  25.6692330
  21.2295270  33.9791080  26.6177250  20.5342660  34.3256270  25.3183340
  29.0333550  47.1574220  31.1439560  29.6755780  46.4567380  31.2571730
  29.5582900  47.9372660  30.9636450  32.8789270  47.4422840  20.8678700
  32.6526850  46.7253280  21.4603340  32.4885470  47.1935280  20.0300450
  30.8071170  47.9569120  34.3475620  31.1427410  48.5435810  35.0253540
  29.8871510  47.8261830  34.5773410  18.6605300  51.4689700  21.6423160
  19.0202940  52.0679040  20.9880430  18.5197640  52.0149590  22.4158190
  18.3574570  35.7464300  35.1299030  17.6433090  35.9461220  35.7351640
  18.7769610  34.9703870  35.5013830  32.4605520  45.3594780  22.5292860
  32.1727220  45.8207470  23.3170740  33.2557690  44.8992550  22.7977080
  18.6447160  49.7344560  36.1165560  18.7538280  48.7939300  35.9760950
  17.9927720  49.9999310  35.4679290  26.6359750  48.0060450  37.5163680
  26.3156620  47.2869690  38.0609370  25.9618110  48.6815520  37.5899740
  24.6773920  48.8520900  22.4596830  24.6684020  49.5850590  21.8441340
  23.7572280  48.6052480  22.5523790  20.2780560  44.0735790  23.2043590
  19.6708510  44.8134690  23.2138890  20.7529910  44.1635150  22.3781790
  33.2175380  37.1943550  23.6888040  32.5888540  37.2989220  22.9746270
  32.7227300  37.4140330  24.4781920  27.6633520  48.9149140  21.1222020
  27.7645500  48.7113130  20.1924000  26.7635260  48.6607420  21.3269800
  25.1859410  39.4729500  25.1045920  24.4775560  39.9415840  25.5459530
  25.4703890  38.8151510  25.7391110  29.2174840  36.1980160  26.5441710
  29.0942620  36.2166290  25.5951220  30.1659400  36.2459100  26.6640110
  26.3051630  51.4335460  25.8169690  26.5593130  51.3956850  24.8949060
  25.3564110  51.3068790  25.8097940  23.3894430  37.7814580  22.4796630
  24.2384960  38.2184730  22.4136820  23.0225700  38.0934840  23.3068690
  32.3104210  42.3527340  27.3928200  31.3694350  42.3677570  27.5675890
  32.6248280  41.5663300  27.8388500  22.2885850  44.0346940  20.9532160
  23.0549120  43.9228300  21.5157590  22.3660540  43.3384910  20.3008930
  20.9832610  41.4672010  21.6365050  21.0636200  40.5199520  21.7482450
  21.8752360  41.7978890  21.7425710  34.3129790  49.5236190  29.0682460
  34.4377210  50.3467360  29.5406270  35.1795350  49.3126920  28.7206610
  21.7847320  51.6167400  28.7399590  22.5209800  51.0682860  29.0108160
  22.1688240  52.4823410  28.6005580  18.6692800  47.6840970  24.6141100
  17.7432580  47.9262110  24.6046510  19.1349230  48.5115230  24.4925850
  20.7905600  50.8013470  37.9285170  21.5918330  51.1225520  38.3420570
  20.2757420  50.4409050  38.6505080  24.8949630  50.7897710  20.5625160
  25.6878240  51.0786540  20.1106950  24.3753980  50.3589880  19.8837640
  29.6270230  46.9093340  37.8760580  29.0208390  46.9324940  37.1356330
  29.3224340  46.1776380  38.4127830  31.0570600  50.6373630  36.4869990
  32.0092350  50.5531650  36.4370230  30.9098820  51.3015340  37.1603780
  33.9479800  50.0167840  21.9861900  33.6621310  49.6032980  21.1716080
  33.7499350  50.9455550  21.8662420  25.4127030  46.0101120  20.4267510
  25.3077670  45.3953470  21.1528890  25.2451250  45.4867010  19.6430520
  25.5641350  44.6957920  36.4056740  24.7987020  45.2642920  36.3211410
  25.7457310  44.4034130  35.5124970  28.6529760  45.0721150  21.0309500
  28.1039860  45.5190450  21.6752240  29.2749020  44.5670400  21.5547170
  24.3204880  44.0312070  22.9274800  24.7421300  43.8651940  23.7706190
  24.4455720  43.2212300  22.4329940  26.8332520  43.0549680  20.1751900
  27.3538180  42.3398700  19.8093050  27.4800920  43.6935550  20.4752410
  31.3810360  44.4778080  35.4986970  31.7951380  44.6323160  36.3477390
  30.4461360  44.6033300  35.6612750  26.1425590  44.4298560  33.4682900
  26.5613700  45.2731290  33.2959140  25.2234220  44.5670600  33.2389680
  23.2163780  40.1045300  19.8732960  23.0152840  39.2412660  20.2346300
  23.0455830  40.0178660  18.9354560  23.9933010  50.7351570  34.5840630
  23.4554100  51.4597630  34.2649330  24.2466970  50.2581910  33.7937970
  30.6952090  34.9153530  22.4019840  30.9754380  34.0721430  22.7579260
  29.9217820  35.1476640  22.9158590  22.0146580  37.2045920  19.8610840
  22.3172480  37.2113350  18.9529990  22.7541170  36.8543780  20.3578500
  26.8495220  51.9702780  34.8427280  26.7753920  52.8737920  35.1499650
  25.9474060  51.6514680  34.8149350  25.2331510  36.1480540  20.8467040
  24.8853510  35.4704530  20.2669490  25.4344280  35.6870050  21.6610430
  27.3980550  51.1361290  22.4653640  28.2931340  51.4746260  22.4872400
  27.4298180  50.4140700  21.8377920  21.0376710  46.5088340  20.6940640
  21.4751580  47.0518010  21.3498220  21.5224440  45.6835290  20.7036980
  18.2522510  49.2977370  28.1460900  18.5825520  48.4298430  27.9139540
  18.6813510  49.5035890  28.9765860  22.8484430  47.6286380  25.8062870
  22.5479970  47.5051350  26.7066780  22.7421920  46.7694970  25.3978600
  18.7412720  50.1647960  30.8842530  18.3043710  50.3448760  31.7166680
  19.3090400  50.9222580  30.7424250  35.6176350  47.4082780  20.5089550
  34.7869310  47.4759430  20.9796780  35.7948180  48.2986900  20.2056410
  18.5737150  42.6768190  27.2431410  17.9185990  42.4079830  26.5991110
  19.4115100  42.5672670  26.7933390  33.0626540  46.3916940  33.2696000
  32.2486380  46.8214100  33.5321790  33.4700740  47.0035350  32.6565050
  35.1251980  44.4464630  20.1696270  35.4000820  45.3543510  20.0415490
  34.9362720  44.3827160  21.1058260  31.5227590  37.4709480  21.4649900
  31.9412470  37.2840460  20.6246560  31.2163650  36.6188530  21.7752830
  19.6113080  43.0620760  31.7834750  19.9786120  42.9748160  32.6630770
  19.0423900  42.2987310  31.6841610  17.7875230  39.8867120  23.1856740
  16.8839310  40.1497320  23.0108400  18.2715850  40.1578290  22.4056700
  20.3302440  38.9432660  21.0951120  21.0394140  38.5215880  20.6098400
  19.6142380  39.0107890  20.4634470  19.9776600  34.9971990  20.1353770
  20.7004730  35.5380930  20.4534990  20.2501120  34.7235410  19.2595310
  33.7868250  39.8664460  24.4025350  34.2827370  39.6335330  25.1874230
  33.5884320  39.0276300  23.9862990  19.6668790  34.2478180  30.0376390
  20.3144980  33.6975560  29.5971550  20.0870630  34.5021330  30.8592200
  35.2155410  38.5025410  26.9363030  35.1054690  38.3481450  27.8745300
  35.9763000  37.9746350  26.6938440  36.1045680  36.3333330  20.1769170
  37.0294990  36.2014510  19.9687460  36.0821470  36.4126150  21.1305620
  36.1784170  37.1043990  22.8025880  35.3835670  37.0389110  23.3318790
  36.3827450  38.0394630  22.7911230  33.1202590  51.1435540  26.7964270
  33.7161660  50.8220110  26.1198690  33.3780740  50.6707360  27.5877540
  19.4200790  34.4033850  32.7801710  19.0715610  34.8597670  33.5459890
  19.0888490  33.5090980  32.8624140  21.0265160  47.5753450  36.9454900
  20.9834790  47.2046360  37.8269360  21.1576170  48.5131020  37.0856720
  24.7271190  49.1313040  32.5464620  24.4862550  49.3987600  31.6595140
  25.6673830  49.3018770  32.6015480  20.8653190  50.5215700  34.0652680
  20.2713510  50.3900400  34.8042720  20.8577030  49.6853840  33.5994780
  33.6714800  51.7930840  30.6262000  33.2117770  52.5446650  30.2520020
  33.0427260  51.0737310  30.5676800  20.4965420  47.8874080  33.0160720
  19.7699480  47.2679370  32.9486670  20.5574570  48.2814690  32.1458800
  24.1010520  50.1019080  29.8010130  24.6175540  49.4906440  29.2758390
  24.7507900  50.6047860  30.2921140  26.8406020  50.9927570  30.6279110
  27.1283830  50.7381870  29.7512120  27.3529240  50.4404930  31.2184680
  28.0583030  34.7317770  31.2075620  27.2754820  35.2063270  31.4872380
  27.7645960  33.8272600  31.0988800  32.6104100  35.4340870  29.2524710
  33.0512190  35.3785970  28.4046310  32.3411690  36.3498880  29.3234890
  34.4742670  35.0656110  27.2633530  34.4131070  34.1217330  27.1164550
  35.2534700  35.1736200  27.8086990  18.7795420  51.2048470  26.2257480
  18.6117460  50.5719150  26.9239370  17.9129930  51.4107870  25.8751670
  19.4023440  35.0365250  23.7289340  20.1602800  35.1494130  23.1553370
  18.9400610  35.8734450  23.6832770  25.9437250  37.1504520  26.7191650
  25.1311760  36.7761410  26.3787530  26.4478890  36.3949600  27.0212840
  30.4462230  33.8146970  27.9574720  31.0491600  34.3867180  28.4323240
  29.7055220  34.3786410  27.7348620  33.5896830  34.2168530  23.2315000
  33.7847460  35.1151980  23.4982430  32.8026700  33.9855610  23.7247950
  20.3858120  49.8981700  23.6707620  19.8605740  50.2789730  22.9669580
  20.3102700  50.5232470  24.3917330  21.7748590  35.5629300  22.2691310
  22.3041350  34.7759100  22.1399260  22.4076910  36.2420490  22.5026840
  23.9686430  35.3004440  25.3236700  23.3389170  34.5991750  25.4906830
  23.4291570  36.0608570  25.1069860  26.9078380  51.9143670  37.9947310
  27.8345690  51.6787940  38.0383270  26.8928810  52.7415670  37.5133340
  35.1423440  51.4569240  24.9921560  35.3175630  50.7706980  24.3482480
  34.4445010  51.9816290  24.5998230  22.9851090  51.8464080  22.5456870
  23.7169910  51.5623360  21.9980760  23.2444760  51.6077360  23.4356250
  22.1465880  47.9628810  22.5503200  21.5174760  48.4313910  23.0989030
  22.2613710  47.1178030  22.9849390  29.6015600  42.0134470   8.7004400
  29.5209650  41.0989080   8.4296110  29.1880020  42.5101540   7.9944110
  27.7333640  43.7913490  10.5813670  26.9575740  43.3113930  10.8712240
  28.3846570  43.1119140  10.4069830  21.7499470  44.1033300  11.4589430
  20.9184350  43.8482010  11.8585940  22.3580450  44.1744070  12.1947350
  31.7541070  48.1973680   9.3612800  31.2922600  47.4260920   9.6899970
  32.5666620  48.2239750   9.8665250  21.7300730  48.1373390  11.6547450
  22.0328770  47.2471130  11.4757670  22.4744320  48.6943610  11.4269700
  20.1591420  39.0635190   5.2431820  19.2708120  39.4051160   5.1411700
  20.4432610  38.8635510   4.3512650  18.1224430  41.6640840  11.1271520
  18.6940540  40.8963040  11.1275160  18.1225970  41.9629600  10.2178130
  27.9804380  50.4831690   8.9816790  27.3615820  50.9389190   8.4111230
  28.8356160  50.6383150   8.5806490  27.1742630  46.4670680  10.5883830
  27.1050910  45.5260620  10.4272960  27.9362490  46.5572090  11.1606400
  19.3649300  37.0725200  12.9140450  19.1852140  36.1750950  13.1943210
  18.9629380  37.6197070  13.5887400  28.2047800  39.2741060  10.8152760
  28.5812620  38.4012940  10.7026430  28.1067310  39.6099760   9.9243200
  22.3352810  37.6466690   6.2770200  22.4419560  38.5470420   6.5838960
  21.4245170  37.5984660   5.9864850  31.9871920  36.7691500   7.7481100
  32.8081540  36.2788070   7.7906580  32.0206000  37.3589160   8.5012940
  19.9835970  39.5685700  11.5222790  20.6646080  39.8324070  12.1410190
  19.6684020  38.7286570  11.8560800  24.1760540  40.6153060  10.6095380
  24.6838760  41.1134030  11.2500400  24.7073780  39.8388260  10.4334740
  36.2771470  38.7858250  14.3124730  35.5723640  39.1739960  13.7939840
  36.5429390  39.4808540  14.9145660  22.4596640  35.2551620  14.8758800
  22.4615080  35.7724010  14.0704700  21.6300950  34.7781800  14.8528730
  28.8467730  45.3670930   6.3748700  28.2285000  45.8320380   5.8111420
  29.3590980  46.0598410   6.7918210  23.7099490  44.8946800  13.0532300
  23.3768870  45.5215720  13.6953370  23.8866170  45.4208680  12.2733970
  32.2233400  38.7091880  10.5208640  31.5188970  38.9976770  11.1011750
  32.5845560  39.5191990  10.1608200  22.1411970  36.9661580  12.8829250
  22.4828780  37.8103630  12.5883120  21.2027780  37.1145320  12.9994590
  22.9218590  46.8627600  14.8681480  23.5392590  47.5378680  14.5865930
  22.0611710  47.2715580  14.7768980  18.2150930  46.0527460   3.7488330
  17.8378910  46.5414560   3.0173230  18.4724000  46.7252740   4.3794860
  33.8396180  48.3267010  12.7836120  33.1559700  48.9966120  12.7752790
  34.3790470  48.5247660  12.0180980  35.2920320  38.1546670  10.9117850
  34.3445230  38.1885650  11.0433280  35.6170310  38.9685620  11.2967210
  25.8239860  34.4543850   9.2073840  26.1314840  33.8990740   8.4909340
  24.8940560  34.5888310   9.0246830  31.3754920  50.1711140  11.4981300
  31.3882080  49.7673430  10.6303560  30.8230140  50.9458430  11.3942730
  32.6700340  46.8927360   6.5871470  32.5596670  45.9501690   6.7120890
  32.6668590  47.2543000   7.4734230  30.7740360  45.0740980  12.8263910
  31.1909150  44.8601090  11.9917370  31.4980180  45.3313770  13.3972530
  28.2120620  42.5192680   5.9433960  27.2849900  42.4530060   6.1722430
  28.3645440  43.4572810   5.8289200  28.1989700  38.7909680   2.9401120
  27.2593370  38.9523640   3.0253580  28.5172960  39.5095360   2.3937110
  34.7202460  43.4728200  12.9180150  33.8921090  43.5421290  12.4430280
  35.3152940  44.0582510  12.4495980  32.2417910  44.0812980   6.4469210
  31.6230330  43.7432530   5.7995510  32.2242360  43.4372740   7.1548400
  31.6844470  40.2597520  13.8635020  31.2715650  41.0851230  14.1175010
  30.9520420  39.6742560  13.6711380  23.8177260  43.0457420   8.7253690
  23.4134260  42.3334670   8.2299590  23.9040380  42.7010660   9.6141730
  24.2858960  46.7324980  10.8892900  23.9887250  46.1270450  10.2100680
  25.2358780  46.7702290  10.7782260  22.5305880  39.8200630  12.5052730
  23.0820470  39.9295970  11.7305980  23.0449390  40.1938230  13.2207960
  32.3744570  50.3056850  14.5516000  31.8975130  51.1129040  14.3588610
  31.6906360  49.6535180  14.7042210  23.3777390  46.4706670  17.5400700
  22.4805920  46.6946640  17.7874100  23.4030260  46.5941610  16.5912100
  30.4182610  43.3199790   3.4541960  30.8575890  42.4822220   3.3079780
  31.1311030  43.9529190   3.5406100  22.2048610  43.3419990  16.1158070
  22.0656380  44.2142790  16.4845470  21.3229970  42.9992800  15.9706010
  28.5277990  48.2595860   7.4223200  28.9673900  49.0020190   7.0078590
  28.4664880  48.5022430   8.3462160  24.0028960  49.2841690  18.3243220
  23.9744390  49.6884640  17.4571650  23.8393930  48.3552050  18.1614820
  33.9999750  34.5742600   1.7683000  33.6872410  34.6669430   2.6682070
  34.7612220  35.1523630   1.7180430  20.5181890  41.9402400   6.2260340
  20.3979490  42.6664490   5.6141610  20.2082780  41.1705310   5.7488250
  35.9543780  50.0668790  19.6207390  36.4303500  50.5451680  20.2996470
  36.5750940  49.9986280  18.8952890  18.1567260  45.1117540  12.0328980
  18.2347680  45.2466310  11.0884700  18.7708940  44.4033430  12.2257100
  19.4014890  46.8117730   8.4435160  18.9942970  46.9532320   7.5888760
  20.2927900  46.5277890   8.2406370  35.3577030  47.2581640  16.7807400
  35.4840090  47.0193520  15.8624580  35.3998410  46.4266180  17.2529480
  29.2193770  50.9609640  15.3502210  29.7338440  50.8717650  16.1524640
  28.3762850  51.3069340  15.6430120  31.1948170  51.2464980   4.7786210
  31.0349310  50.9567920   5.6768040  31.0294880  50.4705110   4.2431440
  23.6736550  51.0263510   6.5557830  23.4979030  50.1099050   6.3425630
  22.8192290  51.3850800   6.7955630  30.8974300  48.7552540   3.3384210
  30.2039460  48.7529830   2.6786490  31.6397160  48.3311860   2.9078380
  30.4624230  50.3815250   7.4132700  30.9181180  49.6004630   7.7271320
  30.8016750  51.0922070   7.9573880  35.2101040  39.3114100  17.7457140
  34.5945310  39.8193770  17.2172600  34.8897460  38.4112430  17.6883080
  18.2126780  46.1531710  14.5723440  18.3757820  45.6837070  13.7542810
  18.6779230  45.6455270  15.2372280  22.9845550  35.2837470   9.6084010
  22.5413700  36.0647010   9.2768530  23.5430540  35.6067360  10.3154950
  27.2715360  38.1505990  15.2119330  26.8094730  38.3589010  16.0239270
  26.8693470  37.3365340  14.9090000  32.2719870  39.3714940  16.3415990
  31.4213460  39.0720690  16.6625060  32.1121660  39.6156950  15.4299810
  29.3669580  40.8716690  18.4414780  29.6922990  40.0380440  18.1017010
  30.1549910  41.3945210  18.5893110  26.1004370  34.9048170   4.4889840
  25.4758550  34.9008040   5.2143150  26.0134490  34.0379130   4.0925810
  25.0221450  35.8284800  11.4673610  25.3193780  36.7347630  11.3865630
  25.5707010  35.3403580  10.8533180  22.7759770  40.4071040   7.3365260
  22.5500690  40.1908210   8.2411880  21.9952300  40.8399500   6.9911230
  30.0057530  40.4134410   5.9355910  29.4066420  41.1370210   5.7519530
  30.5537140  40.3511190   5.1532360  25.2158980  41.3056620  18.0025530
  25.1202580  40.3651350  17.8525930  26.0590960  41.5271690  17.6073600
  28.6122400  39.0497950   7.9659190  29.0051970  39.3670150   7.1527880
  28.9739250  38.1709830   8.0803710  20.3469520  37.7170290  16.1559310
  19.9532910  38.5645500  16.3632090  19.6587920  37.0796660  16.3467950
  26.9214570  37.8005260  19.2256050  26.2312890  37.6077460  19.8602140
  27.6646870  38.0839900  19.7580350  17.6486570  35.6398750  10.1889390
  17.3599620  36.2101610  10.9014370  18.3932330  35.1603200  10.5520620
  29.1977540  41.6403700  12.0609970  28.4658660  42.1490510  12.4100070
  28.8001880  40.8233680  11.7598750  25.6354930  38.3157900  10.4662460
  25.6390990  37.8747850   9.6167000  26.5306050  38.6375230  10.5734280
  21.4857310  38.1984390   9.4256670  21.1457360  38.6759620  10.1823720
  20.7234630  37.7449510   9.0657770  25.6975080  39.3169980   3.4569220
  25.8187900  39.2756460   4.4055040  25.3123590  40.1794130   3.3015950
  29.6603450  37.0937380  11.4732910  29.6776190  37.5446030  12.3174760
  29.4119030  36.1943020  11.6866350  24.7096580  41.6271120   2.8552520
  24.1413480  41.1789370   2.2288430  25.4185580  41.9863900   2.3217670
  33.0874200  34.5069560  17.3119290  33.4119970  33.7759220  17.8377270
  33.1230710  34.1883200  16.4100280  19.7865760  45.5283140  16.7319250
  19.4020550  44.8876810  17.3302210  20.0977950  46.2319260  17.3013980
  25.9362900  42.3759680  12.2127870  26.3033030  41.9018250  12.9589210
  25.7467960  43.2501250  12.5536210  18.8003390  37.1203370   8.3421340
  18.5150310  36.7559040   9.1799960  18.7382250  36.3883830   7.7284480
  23.7262270  41.4168320  14.5312080  23.4219340  42.2960300  14.7562440
  24.6808730  41.4768110  14.5669520  22.2544060  45.6229310   5.1278930
  21.4806320  45.0826930   4.9677650  22.9838690  45.1035920   4.7896690
  33.0132040  44.6194670  10.9205320  33.7331160  45.1149960  10.5301430
  32.8113860  43.9412560  10.2759190  28.4741980  36.0132630   5.0634710
  27.6606590  35.5145800   4.9880020  28.2803930  36.8530880   4.6471060
  28.3950840  44.6903730  16.8074320  28.3288150  43.7699400  16.5531910
  27.7655980  44.7879170  17.5218960  31.1890370  40.3852280   3.3596870
  32.0769990  40.6969510   3.1848210  31.1595460  39.5124530   2.9677450
  22.2981460  45.2909690   8.7657740  22.8160130  44.4877950   8.7114630
  21.8465480  45.2288830   9.6074570  27.1850960  46.5575970   4.0385040
  27.5266660  47.3018200   3.5428360  26.3563670  46.8707090   4.4009870
  19.7826000  42.2571060  15.6783440  19.4240940  42.9224910  16.2656780
  19.4880560  41.4254610  16.0496060  22.9839120  42.7155300  18.5622990
  22.6839260  42.8612480  17.6650810  23.7550360  42.1560590  18.4696380
  28.3267570  47.5124300  16.5578120  28.3412110  46.5805260  16.3397030
  27.6192670  47.5984060  17.1967890  33.4604640  41.6964120   2.8276730
  33.3768360  42.1278340   1.9773170  34.1798830  42.1562470   3.2603550
  34.5378780  44.1531640  15.9046700  33.8126970  44.7460420  15.7076090
  35.0654240  44.1455180  15.1060070  34.4891890  48.5506380   5.5558860
  33.8468050  47.8962000   5.8302580  34.1022550  48.9561470   4.7799530
  30.0678370  45.8791810   9.4030550  30.4202190  45.2819940   8.7431920
  29.1840700  45.5536040   9.5738800  26.1541650  46.6389500   6.8100960
  26.8412780  47.1858710   7.1908550  25.3674070  47.1830230   6.8450570
  18.2934050  42.2562320   2.3018040  19.1628900  42.5387120   2.5853960
  17.8024370  43.0698190   2.1866850  25.4568860  43.6435530   6.4226320
  25.9131640  44.4540780   6.6486510  25.1057070  43.3258670   7.2544810
  27.7601470  49.1541870  13.6518620  28.4043690  49.3601250  14.3292040
  28.1230910  48.3930270  13.1989470  21.3580640  33.9873180   6.8948840
  21.2295270  33.9791080   7.8433760  20.5342660  34.3256270   6.5439850
  29.0333550  47.1574220  12.3696070  29.6755780  46.4567380  12.4828240
  29.5582900  47.9372660  12.1892960  30.8071170  47.9569120  15.5732130
  31.1427410  48.5435810  16.2510050  29.8871510  47.8261830  15.8029920
  18.6605300  51.4689700   2.8679670  19.0202940  52.0679040   2.2136940
  18.5197640  52.0149590   3.6414700  18.3574570  35.7464300  16.3555540
  17.6433090  35.9461220  16.9608150  18.7769610  34.9703870  16.7270340
  32.4605520  45.3594780   3.7549370  32.1727220  45.8207470   4.5427250
  33.2557690  44.8992550   4.0233590  18.6447160  49.7344560  17.3422070
  18.7538280  48.7939300  17.2017460  17.9927720  49.9999310  16.6935800
  26.6359750  48.0060450  18.7420190  26.3156620  47.2869690  19.2865880
  25.9618110  48.6815520  18.8156250  24.6773920  48.8520900   3.6853340
  24.6684020  49.5850590   3.0697850  23.7572280  48.6052480   3.7780300
  20.2780560  44.0735790   4.4300100  19.6708510  44.8134690   4.4395400
  20.7529910  44.1635150   3.6038300  29.8513350  38.2386610  14.1056990
  30.2194170  37.4181820  14.4336560  28.9911550  38.2988500  14.5212640
  33.2175380  37.1943550   4.9144550  32.5888540  37.2989220   4.2002780
  32.7227300  37.4140330   5.7038430  25.1859410  39.4729500   6.3302430
  24.4775560  39.9415840   6.7716040  25.4703890  38.8151510   6.9647620
  26.8115340  40.8926200  14.3294960  27.3100590  41.3672020  14.9946810
  26.9538290  39.9689720  14.5364990  29.2174840  36.1980160   7.7698220
  29.0942620  36.2166290   6.8207730  30.1659400  36.2459100   7.8896620
  26.3051630  51.4335460   7.0426200  26.5593130  51.3956850   6.1205570
  25.3564110  51.3068790   7.0354450  23.3894430  37.7814580   3.7053140
  24.2384960  38.2184730   3.6393330  23.0225700  38.0934840   4.5325200
  34.0182200  37.1094160  15.1723350  33.5155800  37.8499560  15.5117160
  34.8338860  37.4978160  14.8560140  32.3104210  42.3527340   8.6184710
  31.3694350  42.3677570   8.7932400  32.6248280  41.5663300   9.0645010
  20.9832610  41.4672010   2.8621560  21.0636200  40.5199520   2.9738960
  21.8752360  41.7978890   2.9682220  34.3129790  49.5236190  10.2938970
  34.4377210  50.3467360  10.7662780  35.1795350  49.3126920   9.9463120
  21.7847320  51.6167400   9.9656100  22.5209800  51.0682860  10.2364670
  22.1688240  52.4823410   9.8262090  18.6692800  47.6840970   5.8397610
  17.7432580  47.9262110   5.8303020  19.1349230  48.5115230   5.7182360
  20.7905600  50.8013470  19.1541680  21.5918330  51.1225520  19.5677080
  20.2757420  50.4409050  19.8761590  29.6270230  46.9093340  19.1017090
  29.0208390  46.9324940  18.3612840  29.3224340  46.1776380  19.6384340
  31.0570600  50.6373630  17.7126500  32.0092350  50.5531650  17.6626740
  30.9098820  51.3015340  18.3860290  33.9479800  50.0167840   3.2118410
  33.6621310  49.6032980   2.3972590  33.7499350  50.9455550   3.0918930
  18.5103410  43.2886930  18.0977730  19.0142430  42.7094210  18.6693960
  17.7710830  43.5727160  18.6354100  25.5641350  44.6957920  17.6313250
  24.7987020  45.2642920  17.5467920  25.7457310  44.4034130  16.7381480
  28.6529760  45.0721150   2.2566010  28.1039860  45.5190450   2.9008750
  29.2749020  44.5670400   2.7803680  32.7064700  46.4263250  18.1888270
  33.4474170  46.7639010  17.6855730  31.9437380  46.5955310  17.6358040
  20.5426490  41.4316520  18.9927800  20.5831830  41.1330390  19.9013030
  21.3971990  41.8324130  18.8335320  24.3204880  44.0312070   4.1531310
  24.7421300  43.8651940   4.9962700  24.4455720  43.2212300   3.6586450
  22.4832300  40.0108620  16.9602290  21.9528760  39.5199570  16.3325630
  23.1520370  40.4392820  16.4260220  31.3810360  44.4778080  16.7243480
  31.7951380  44.6323160  17.5733900  30.4461360  44.6033300  16.8869260
  31.8532530  41.8174240  18.7282630  32.4353300  41.0626560  18.6403110
  32.0294300  42.3481680  17.9514110  22.9704600  36.9770990  17.0399580
  22.8761470  36.3591740  16.3150450  22.3901990  37.7037280  16.8129490
  25.7366040  35.5344230  14.0726970  25.2883340  35.5568490  13.2272520
  25.1031240  35.1363250  14.6697270  26.1425590  44.4298560  14.6939410
  26.5613700  45.2731290  14.5215650  25.2234220  44.5670600  14.4646190
  28.4789490  42.1614740  16.0777250  28.5985700  41.5655880  16.8172090
  29.3383490  42.1984430  15.6578550  30.8177390  42.7151930  14.6539760
  30.2912610  43.2394550  14.0504900  31.1608730  43.3479320  15.2849490
  23.9933010  50.7351570  15.8097140  23.4554100  51.4597630  15.4905840
  24.2466970  50.2581910  15.0194480  25.2458260  38.7036090  17.3353070
  25.8357950  38.3951940  18.0230890  24.4278500  38.2315840  17.4912970
  30.0651690  38.3201900  17.5686090  29.3767210  37.6583440  17.5036080
  30.7857710  37.8740170  18.0134550  30.6952090  34.9153530   3.6276350
  30.9754380  34.0721430   3.9835770  29.9217820  35.1476640   4.1415100
  26.8495220  51.9702780  16.0683790  26.7753920  52.8737920  16.3756160
  25.9474060  51.6514680  16.0405860  27.3980550  51.1361290   3.6910150
  28.2931340  51.4746260   3.7128910  27.4298180  50.4140700   3.0634430
  21.0376710  46.5088340   1.9197150  21.4751580  47.0518010   2.5754730
  21.5224440  45.6835290   1.9293490  18.2522510  49.2977370   9.3717410
  18.5825520  48.4298430   9.1396050  18.6813510  49.5035890  10.2022370
  22.8484430  47.6286380   7.0319380  22.5479970  47.5051350   7.9323290
  22.7421920  46.7694970   6.6235110  18.7412720  50.1647960  12.1099040
  18.3043710  50.3448760  12.9423190  19.3090400  50.9222580  11.9680760
  34.3774900  49.6664960  16.3976350  33.7776890  49.7257520  15.6540270
  34.5068800  48.7269940  16.5273200  35.0732810  44.1530260   4.2380260
  35.8351720  44.7226910   4.3439950  35.0887180  43.5857460   5.0088570
  18.5737150  42.6768190   8.4687920  17.9185990  42.4079830   7.8247620
  19.4115100  42.5672670   8.0189900  36.0792780  45.0080360   9.0822190
  36.4501610  44.2247680   8.6758160  36.7194710  45.6969460   8.9039490
  33.0626540  46.3916940  14.4952510  32.2486380  46.8214100  14.7578300
  33.4700740  47.0035350  13.8821560  31.5227590  37.4709480   2.6906410
  31.9412470  37.2840460   1.8503070  31.2163650  36.6188530   3.0009340
  35.0217320  42.3833620   6.3882210  34.6460920  41.6161550   5.9563500
  34.2920440  42.7656320   6.8757140  19.6113080  43.0620760  13.0091260
  19.9786120  42.9748160  13.8887280  19.0423900  42.2987310  12.9098120
  34.4116940  41.5305140  16.0221730  34.1803030  41.3017890  15.1219680
  34.6721490  42.4504690  15.9766620  19.1629080  39.9729850  16.9149680
  18.2685130  39.9396610  17.2543390  19.7026630  40.1716640  17.6800930
  32.8505010  36.7561570  18.8001430  33.7275190  36.7644970  19.1835430
  32.8625850  36.0192410  18.1893780  17.7875230  39.8867120   4.4113250
  16.8839310  40.1497320   4.2364910  18.2715850  40.1578290   3.6313210
  34.2968280  40.6091110   9.6889450  34.8205760  40.1153760   9.0579620
  34.8827700  40.7441470  10.4337020  34.4758000  40.6930980  13.2109000
  33.5260710  40.6594520  13.3253990  34.6571010  41.6031090  12.9758770
  20.3302440  38.9432660   2.3207630  21.0394140  38.5215880   1.8354910
  19.6142380  39.0107890   1.6890980  33.7868250  39.8664460   5.6281860
  34.2827370  39.6335330   6.4130740  33.5884320  39.0276300   5.2119500
  19.6668790  34.2478180  11.2632900  20.3144980  33.6975560  10.8228060
  20.0870630  34.5021330  12.0848710  35.2155410  38.5025410   8.1619540
  35.1054690  38.3481450   9.1001810  35.9763000  37.9746350   7.9194950
  33.5621130  34.4419540  14.6202540  34.1993350  35.0553680  14.9861730
  33.7096020  34.4780200  13.6751770  36.1784170  37.1043990   4.0282390
  35.3835670  37.0389110   4.5575300  36.3827450  38.0394630   4.0167740
  33.1202590  51.1435540   8.0220780  33.7161660  50.8220110   7.3455200
  33.3780740  50.6707360   8.8134050  19.4200790  34.4033850  14.0058220
  19.0715610  34.8597670  14.7716400  19.0888490  33.5090980  14.0880650
  21.0265160  47.5753450  18.1711410  20.9834790  47.2046360  19.0525870
  21.1576170  48.5131020  18.3113230  24.7271190  49.1313040  13.7721130
  24.4862550  49.3987600  12.8851650  25.6673830  49.3018770  13.8271990
  26.9325610  35.5945730  17.5277640  26.8714500  36.1867560  18.2773050
  27.8725990  35.4871690  17.3827900  29.5700170  35.2515790  17.1669930
  30.1840580  35.5695080  16.5051010  30.1149730  34.7664380  17.7865790
  35.9875350  51.1507420  14.5731770  35.4933630  51.5476290  13.8558900
  35.3788640  50.5256630  14.9669050  20.0921430  33.9310050  17.2808990
  20.6404420  33.7498100  16.5175100  20.1576740  33.1404160  17.8165300
  20.8653190  50.5215700  15.2909190  20.2713510  50.3900400  16.0299230
  20.8577030  49.6853840  14.8251290  30.3108210  33.8147930  13.4939220
  29.4368050  34.1483040  13.2912150  30.2018960  33.3421110  14.3191090
  31.2180190  36.0218800  14.8780940  30.8893550  35.2070560  14.4982670
  32.1662490  35.9788610  14.7546630  33.6714800  51.7930840  11.8518510
  33.2117770  52.5446650  11.4776530  33.0427260  51.0737310  11.7933310
  20.4965420  47.8874080  14.2417230  19.7699480  47.2679370  14.1743180
  20.5574570  48.2814690  13.3715310  24.1010520  50.1019080  11.0266640
  24.6175540  49.4906440  10.5014900  24.7507900  50.6047860  11.5177650
  26.8406020  50.9927570  11.8535620  27.1283830  50.7381870  10.9768630
  27.3529240  50.4404930  12.4441190  28.0583030  34.7317770  12.4332130
  27.2754820  35.2063270  12.7128890  27.7645960  33.8272600  12.3245310
  32.6104100  35.4340870  10.4781220  33.0512190  35.3785970   9.6302820
  32.3411690  36.3498880  10.5491400  34.4742670  35.0656110   8.4890040
  34.4131070  34.1217330   8.3421060  35.2534700  35.1736200   9.0343500
  18.7795420  51.2048470   7.4513990  18.6117460  50.5719150   8.1495880
  17.9129930  51.4107870   7.1008180  19.4023440  35.0365250   4.9545850
  20.1602800  35.1494130   4.3809880  18.9400610  35.8734450   4.9089280
  25.9437250  37.1504520   7.9448160  25.1311760  36.7761410   7.6044040
  26.4478890  36.3949600   8.2469350  30.4462230  33.8146970   9.1831230
  31.0491600  34.3867180   9.6579750  29.7055220  34.3786410   8.9605130
  33.5896830  34.2168530   4.4571510  33.7847460  35.1151980   4.7238940
  32.8026700  33.9855610   4.9504460  20.3858120  49.8981700   4.8964130
  19.8605740  50.2789730   4.1926090  20.3102700  50.5232470   5.6173840
  21.7748590  35.5629300   3.4947820  22.3041350  34.7759100   3.3655770
  22.4076910  36.2420490   3.7283350  23.9686430  35.3004440   6.5493210
  23.3389170  34.5991750   6.7163340  23.4291570  36.0608570   6.3326370
  26.9078380  51.9143670  19.2203820  27.8345690  51.6787940  19.2639780
  26.8928810  52.7415670  18.7389850  35.1423440  51.4569240   6.2178070
  35.3175630  50.7706980   5.5738990  34.4445010  51.9816290   5.8254740
  24.0941990  34.5788420  18.9845700  23.8126260  35.0822020  18.2206520
  24.4761690  33.7810170  18.6187830  22.9851090  51.8464080   3.7713380
  23.7169910  51.5623360   3.2237270  23.2444760  51.6077360   4.6612760
  22.1465880  47.9628810   3.7759710  21.5174760  48.4313910   4.3245540
  22.2613710  47.1178030   4.2105900  30.6957450  33.9942000  19.5626170
  30.5822900  34.3136610  20.4577690  31.5127190  34.3954510  19.2663450
  33.4755940  51.1413530  19.0444860  34.2681260  50.6462760  18.8370820
  33.7689090  51.8203670  19.6520470  29.6015600  23.2390980  83.7978360
  29.5209650  22.3245590  83.5270070  29.1880020  23.7358050  83.0918070
  27.7333640  25.0170000  85.6787630  26.9575740  24.5370440  85.9686200
  28.3846570  24.3375650  85.5043790  21.7499470  25.3289810  86.5563390
  20.9184350  25.0738520  86.9559900  22.3580450  25.4000580  87.2921310
  31.7541070  29.4230190  84.4586760  31.2922600  28.6517430  84.7873930
  32.5666620  29.4496260  84.9639210  21.7300730  29.3629900  86.7521410
  22.0328770  28.4727640  86.5731630  22.4744320  29.9200120  86.5243660
  20.1591420  20.2891700  80.3405780  19.2708120  20.6307670  80.2385660
  20.4432610  20.0892020  79.4486610  18.1224430  22.8897350  86.2245480
  18.6940540  22.1219550  86.2249120  18.1225970  23.1886110  85.3152090
  27.9804380  31.7088200  84.0790750  27.3615820  32.1645700  83.5085190
  28.8356160  31.8639660  83.6780450  27.1742630  27.6927190  85.6857790
  27.1050910  26.7517130  85.5246920  27.9362490  27.7828600  86.2580360
  19.3649300  18.2981710  88.0114410  19.1852140  17.4007460  88.2917170
  18.9629380  18.8453580  88.6861360  28.2047800  20.4997570  85.9126720
  28.5812620  19.6269450  85.8000390  28.1067310  20.8356270  85.0217160
  22.3352810  18.8723200  81.3744160  22.4419560  19.7726930  81.6812920
  21.4245170  18.8241170  81.0838810  31.9871920  17.9948010  82.8455060
  32.8081540  17.5044580  82.8880540  32.0206000  18.5845670  83.5986900
  19.9835970  20.7942210  86.6196750  20.6646080  21.0580580  87.2384150
  19.6684020  19.9543080  86.9534760  24.1760540  21.8409570  85.7069340
  24.6838760  22.3390540  86.3474360  24.7073780  21.0644770  85.5308700
  36.2771470  20.0114760  89.4098690  35.5723640  20.3996470  88.8913800
  36.5429390  20.7065050  90.0119620  22.4596640  16.4808130  89.9732760
  22.4615080  16.9980520  89.1678660  21.6300950  16.0038310  89.9502690
  28.8467730  26.5927440  81.4722660  28.2285000  27.0576890  80.9085380
  29.3590980  27.2854920  81.8892170  23.7099490  26.1203310  88.1506260
  23.3768870  26.7472230  88.7927330  23.8866170  26.6465190  87.3707930
  32.2233400  19.9348390  85.6182600  31.5188970  20.2233280  86.1985710
  32.5845560  20.7448500  85.2582160  22.1411970  18.1918090  87.9803210
  22.4828780  19.0360140  87.6857080  21.2027780  18.3401830  88.0968550
  22.9218590  28.0884110  89.9655440  23.5392590  28.7635190  89.6839890
  22.0611710  28.4972090  89.8742940  18.2150930  27.2783970  78.8462290
  17.8378910  27.7671070  78.1147190  18.4724000  27.9509250  79.4768820
  33.8396180  29.5523520  87.8810080  33.1559700  30.2222630  87.8726750
  34.3790470  29.7504170  87.1154940  35.2920320  19.3803180  86.0091810
  34.3445230  19.4142160  86.1407240  35.6170310  20.1942130  86.3941170
  25.8239860  15.6800360  84.3047800  26.1314840  15.1247250  83.5883300
  24.8940560  15.8144820  84.1220790  31.3754920  31.3967650  86.5955260
  31.3882080  30.9929940  85.7277520  30.8230140  32.1714940  86.4916690
  32.6700340  28.1183870  81.6845430  32.5596670  27.1758200  81.8094850
  32.6668590  28.4799510  82.5708190  30.7740360  26.2997490  87.9237870
  31.1909150  26.0857600  87.0891330  31.4980180  26.5570280  88.4946490
  28.2120620  23.7449190  81.0407920  27.2849900  23.6786570  81.2696390
  28.3645440  24.6829320  80.9263160  28.1989700  20.0166190  78.0375080
  27.2593370  20.1780150  78.1227540  28.5172960  20.7351870  77.4911070
  34.7202460  24.6984710  88.0154110  33.8921090  24.7677800  87.5404240
  35.3152940  25.2839020  87.5469940  32.2417910  25.3069490  81.5443170
  31.6230330  24.9689040  80.8969470  32.2242360  24.6629250  82.2522360
  31.6844470  21.4854030  88.9608980  31.2715650  22.3107740  89.2148970
  30.9520420  20.8999070  88.7685340  23.8177260  24.2713930  83.8227650
  23.4134260  23.5591180  83.3273550  23.9040380  23.9267170  84.7115690
  24.2858960  27.9581490  85.9866860  23.9887250  27.3526960  85.3074640
  25.2358780  27.9958800  85.8756220  22.5305880  21.0457140  87.6026690
  23.0820470  21.1552480  86.8279940  23.0449390  21.4194740  88.3181920
  32.3744570  31.5313360  89.6489960  31.8975130  32.3385550  89.4562570
  31.6906360  30.8791690  89.8016170  23.3777390  27.6963180  92.6374660
  22.4805920  27.9203150  92.8848060  23.4030260  27.8198120  91.6886060
  30.4182610  24.5456300  78.5515920  30.8575890  23.7078730  78.4053740
  31.1311030  25.1785700  78.6380060  22.2048610  24.5676500  91.2132030
  22.0656380  25.4399300  91.5819430  21.3229970  24.2249310  91.0679970
  28.5277990  29.4852370  82.5197160  28.9673900  30.2276700  82.1052550
  28.4664880  29.7278940  83.4436120  24.0028960  30.5098200  93.4217180
  23.9744390  30.9141150  92.5545610  23.8393930  29.5808560  93.2588780
  33.9999750  15.7999110  76.8656960  33.6872410  15.8925940  77.7656030
  34.7612220  16.3780140  76.8154390  20.5181890  23.1658910  81.3234300
  20.3979490  23.8921000  80.7115570  20.2082780  22.3961820  80.8462210
  18.1567260  26.3374050  87.1302940  18.2347680  26.4722820  86.1858660
  18.7708940  25.6289940  87.3231060  19.4014890  28.0374240  83.5409120
  18.9942970  28.1788830  82.6862720  20.2927900  27.7534400  83.3380330
  35.3577030  28.4838150  91.8781360  35.4840090  28.2450030  90.9598540
  35.3998410  27.6522690  92.3503440  29.2193770  32.1866150  90.4476170
  29.7338440  32.0974160  91.2498600  28.3762850  32.5325850  90.7404080
  31.1948170  32.4721490  79.8760170  31.0349310  32.1824430  80.7742000
  31.0294880  31.6961620  79.3405400  23.6736550  32.2520020  81.6531790
  23.4979030  31.3355560  81.4399590  22.8192290  32.6107310  81.8929590
  30.8974300  29.9809050  78.4358170  30.2039460  29.9786340  77.7760450
  31.6397160  29.5568370  78.0052340  30.4624230  31.6071760  82.5106660
  30.9181180  30.8261140  82.8245280  30.8016750  32.3178580  83.0547840
  35.2101040  20.5370610  92.8431100  34.5945310  21.0450280  92.3146560
  34.8897460  19.6368940  92.7857040  18.2126780  27.3788220  89.6697400
  18.3757820  26.9093580  88.8516770  18.6779230  26.8711780  90.3346240
  22.9845550  16.5093980  84.7057970  22.5413700  17.2903520  84.3742490
  23.5430540  16.8323870  85.4128910  27.2715360  19.3762500  90.3093290
  26.8094730  19.5845520  91.1213230  26.8693470  18.5621850  90.0063960
  32.2719870  20.5971450  91.4389950  31.4213460  20.2977200  91.7599020
  32.1121660  20.8413460  90.5273770  29.3669580  22.0973200  93.5388740
  29.6922990  21.2636950  93.1990970  30.1549910  22.6201720  93.6867070
  26.1004370  16.1304680  79.5863800  25.4758550  16.1264550  80.3117110
  26.0134490  15.2635640  79.1899770  25.0221450  17.0541310  86.5647570
  25.3193780  17.9604140  86.4839590  25.5707010  16.5660090  85.9507140
  22.7759770  21.6327550  82.4339220  22.5500690  21.4164720  83.3385840
  21.9952300  22.0656010  82.0885190  30.0057530  21.6390920  81.0329870
  29.4066420  22.3626720  80.8493490  30.5537140  21.5767700  80.2506320
  25.2158980  22.5313130  93.0999490  25.1202580  21.5907860  92.9499890
  26.0590960  22.7528200  92.7047560  28.6122400  20.2754460  83.0633150
  29.0051970  20.5926660  82.2501840  28.9739250  19.3966340  83.1777670
  20.3469520  18.9426800  91.2533270  19.9532910  19.7902010  91.4606050
  19.6587920  18.3053170  91.4441910  17.6486570  16.8655260  85.2863350
  17.3599620  17.4358120  85.9988330  18.3932330  16.3859710  85.6494580
  17.8356800  20.8075380  76.4966070  17.7531470  21.7506140  76.6381060
  17.4839860  20.6650290  75.6178420  29.1977540  22.8660210  87.1583930
  28.4658660  23.3747020  87.5074030  28.8001880  22.0490190  86.8572710
  25.6354930  19.5414410  85.5636420  25.6390990  19.1004360  84.7140960
  26.5306050  19.8631740  85.6708240  21.4857310  19.4240900  84.5230630
  21.1457360  19.9016130  85.2797680  20.7234630  18.9706020  84.1631730
  25.6975080  20.5426490  78.5543180  25.8187900  20.5012970  79.5029000
  25.3123590  21.4050640  78.3989910  29.6603450  18.3193890  86.5706870
  29.6776190  18.7702540  87.4148720  29.4119030  17.4199530  86.7840310
  24.7096580  22.8527630  77.9526480  24.1413480  22.4045880  77.3262390
  25.4185580  23.2120410  77.4191630  33.0874200  15.7326070  92.4093250
  33.4119970  15.0015730  92.9351230  33.1230710  15.4139710  91.5074240
  19.7865760  26.7539650  91.8293210  19.4020550  26.1133320  92.4276170
  20.0977950  27.4575770  92.3987940  25.9362900  23.6016190  87.3101830
  26.3033030  23.1274760  88.0563170  25.7467960  24.4757760  87.6510170
  18.8003390  18.3459880  83.4395300  18.5150310  17.9815550  84.2773920
  18.7382250  17.6140340  82.8258440  23.7262270  22.6424830  89.6286040
  23.4219340  23.5216810  89.8536400  24.6808730  22.7024620  89.6643480
  22.2544060  26.8485820  80.2252890  21.4806320  26.3083440  80.0651610
  22.9838690  26.3292430  79.8870650  33.0132040  25.8451180  86.0179280
  33.7331160  26.3406470  85.6275390  32.8113860  25.1669070  85.3733150
  28.4741980  17.2389140  80.1608670  27.6606590  16.7402310  80.0853980
  28.2803930  18.0787390  79.7445020  28.3950840  25.9160240  91.9048280
  28.3288150  24.9955910  91.6505870  27.7655980  26.0135680  92.6192920
  31.1890370  21.6108790  78.4570830  32.0769990  21.9226020  78.2822170
  31.1595460  20.7381040  78.0651410  22.2981460  26.5166200  83.8631700
  22.8160130  25.7134460  83.8088590  21.8465480  26.4545340  84.7048530
  27.1850960  27.7832480  79.1359000  27.5266660  28.5274710  78.6402320
  26.3563670  28.0963600  79.4983830  19.7826000  23.4827570  90.7757400
  19.4240940  24.1481420  91.3630740  19.4880560  22.6511120  91.1470020
  22.9839120  23.9411810  93.6596950  22.6839260  24.0868990  92.7624770
  23.7550360  23.3817100  93.5670340  28.3267570  28.7380810  91.6552080
  28.3412110  27.8061770  91.4370990  27.6192670  28.8240570  92.2941850
  33.4604640  22.9220630  77.9250690  33.3768360  23.3534850  77.0747130
  34.1798830  23.3818980  78.3577510  34.5378780  25.3788150  91.0020660
  33.8126970  25.9716930  90.8050050  35.0654240  25.3711690  90.2034030
  34.4891890  29.7762890  80.6532820  33.8468050  29.1218510  80.9276540
  34.1022550  30.1817980  79.8773490  30.0678370  27.1048320  84.5004510
  30.4202190  26.5076450  83.8405880  29.1840700  26.7792550  84.6712760
  26.1541650  27.8646010  81.9074920  26.8412780  28.4115220  82.2882510
  25.3674070  28.4086740  81.9424530  18.2934050  23.4818830  77.3992000
  19.1628900  23.7643630  77.6827920  17.8024370  24.2954700  77.2840810
  25.4568860  24.8692040  81.5200280  25.9131640  25.6797290  81.7460470
  25.1057070  24.5515180  82.3518770  27.7601470  30.3798380  88.7492580
  28.4043690  30.5857760  89.4266000  28.1230910  29.6186780  88.2963430
  21.3580640  15.2129690  81.9922800  21.2295270  15.2047590  82.9407720
  20.5342660  15.5512780  81.6413810  29.0333550  28.3830730  87.4670030
  29.6755780  27.6823890  87.5802200  29.5582900  29.1629170  87.2866920
  32.8789270  28.6679350  77.1909170  32.6526850  27.9509790  77.7833810
  32.4885470  28.4191790  76.3530920  30.8071170  29.1825630  90.6706090
  31.1427410  29.7692320  91.3484010  29.8871510  29.0518340  90.9003880
  18.6605300  32.6946210  77.9653630  19.0202940  33.2935550  77.3110900
  18.5197640  33.2406100  78.7388660  18.3574570  16.9720810  91.4529500
  17.6433090  17.1717730  92.0582110  18.7769610  16.1960380  91.8244300
  32.4605520  26.5851290  78.8523330  32.1727220  27.0463980  79.6401210
  33.2557690  26.1249060  79.1207550  18.6447160  30.9601070  92.4396030
  18.7538280  30.0195810  92.2991420  17.9927720  31.2255820  91.7909760
  24.6773920  30.0777410  78.7827300  24.6684020  30.8107100  78.1671810
  23.7572280  29.8308990  78.8754260  20.2780560  25.2992300  79.5274060
  19.6708510  26.0391200  79.5369360  20.7529910  25.3891660  78.7012260
  29.8513350  19.4643120  89.2030950  30.2194170  18.6438330  89.5310520
  28.9911550  19.5245010  89.6186600  33.2175380  18.4200060  80.0118510
  32.5888540  18.5245730  79.2976740  32.7227300  18.6396840  80.8012390
  27.6633520  30.1405650  77.4452490  27.7645500  29.9369640  76.5154470
  26.7635260  29.8863930  77.6500270  25.1859410  20.6986010  81.4276390
  24.4775560  21.1672350  81.8690000  25.4703890  20.0408020  82.0621580
  26.8115340  22.1182710  89.4268920  27.3100590  22.5928530  90.0920770
  26.9538290  21.1946230  89.6338950  29.2174840  17.4236670  82.8672180
  29.0942620  17.4422800  81.9181690  30.1659400  17.4715610  82.9870580
  26.3051630  32.6591970  82.1400160  26.5593130  32.6213360  81.2179530
  25.3564110  32.5325300  82.1328410  23.3894430  19.0071090  78.8027100
  24.2384960  19.4441240  78.7367290  23.0225700  19.3191350  79.6299160
  34.0182200  18.3350670  90.2697310  33.5155800  19.0756070  90.6091120
  34.8338860  18.7234670  89.9534100  32.3104210  23.5783850  83.7158670
  31.3694350  23.5934080  83.8906360  32.6248280  22.7919810  84.1618970
  22.2885850  25.2603450  77.2762630  23.0549120  25.1484810  77.8388060
  22.3660540  24.5641420  76.6239400  20.9832610  22.6928520  77.9595520
  21.0636200  21.7456030  78.0712920  21.8752360  23.0235400  78.0656180
  34.3129790  30.7492700  85.3912930  34.4377210  31.5723870  85.8636740
  35.1795350  30.5383430  85.0437080  21.7847320  32.8423910  85.0630060
  22.5209800  32.2939370  85.3338630  22.1688240  33.7079920  84.9236050
  18.6692800  28.9097480  80.9371570  17.7432580  29.1518620  80.9276980
  19.1349230  29.7371740  80.8156320  24.8949630  32.0154220  76.8855630
  25.6878240  32.3043050  76.4337420  24.3753980  31.5846390  76.2068110
  31.0570600  31.8630140  92.8100460  32.0092350  31.7788160  92.7600700
  30.9098820  32.5271850  93.4834250  33.9479800  31.2424350  78.3092370
  33.6621310  30.8289490  77.4946550  33.7499350  32.1712060  78.1892890
  18.5103410  24.5143440  93.1951690  19.0142430  23.9350720  93.7667920
  17.7710830  24.7983670  93.7328060  25.4127030  27.2357630  76.7497980
  25.3077670  26.6209980  77.4759360  25.2451250  26.7123520  75.9660990
  25.5641350  25.9214430  92.7287210  24.7987020  26.4899430  92.6441880
  25.7457310  25.6290640  91.8355440  28.6529760  26.2977660  77.3539970
  28.1039860  26.7446960  77.9982710  29.2749020  25.7926910  77.8777640
  32.7064700  27.6519760  93.2862230  33.4474170  27.9895520  92.7829690
  31.9437380  27.8211820  92.7332000  24.3204880  25.2568580  79.2505270
  24.7421300  25.0908450  80.0936660  24.4455720  24.4468810  78.7560410
  22.4832300  21.2365130  92.0576250  21.9528760  20.7456080  91.4299590
  23.1520370  21.6649330  91.5234180  26.8332520  24.2806190  76.4982370
  27.3538180  23.5655210  76.1323520  27.4800920  24.9192060  76.7982880
  31.3810360  25.7034590  91.8217440  31.7951380  25.8579670  92.6707860
  30.4461360  25.8289810  91.9843220  31.8532530  23.0430750  93.8256590
  32.4353300  22.2883070  93.7377070  32.0294300  23.5738190  93.0488070
  22.9704600  18.2027500  92.1373540  22.8761470  17.5848250  91.4124410
  22.3901990  18.9293790  91.9103450  25.7366040  16.7600740  89.1700930
  25.2883340  16.7825000  88.3246480  25.1031240  16.3619760  89.7671230
  26.1425590  25.6555070  89.7913370  26.5613700  26.4987800  89.6189610
  25.2234220  25.7927110  89.5620150  28.4789490  23.3871250  91.1751210
  28.5985700  22.7912390  91.9146050  29.3383490  23.4240940  90.7552510
  30.8177390  23.9408440  89.7513720  30.2912610  24.4651060  89.1478860
  31.1608730  24.5735830  90.3823450  23.2163780  21.3301810  76.1963430
  23.0152840  20.4669170  76.5576770  23.0455830  21.2435170  75.2585030
  23.9933010  31.9608080  90.9071100  23.4554100  32.6854140  90.5879800
  24.2466970  31.4838420  90.1168440  25.2458260  19.9292600  92.4327030
  25.8357950  19.6208450  93.1204850  24.4278500  19.4572350  92.5886930
  30.0651690  19.5458410  92.6660050  29.3767210  18.8839950  92.6010040
  30.7857710  19.0996680  93.1108510  30.6952090  16.1410040  78.7250310
  30.9754380  15.2977940  79.0809730  29.9217820  16.3733150  79.2389060
  22.0146580  18.4302430  76.1841310  22.3172480  18.4369860  75.2760460
  22.7541170  18.0800290  76.6808970  26.8495220  33.1959290  91.1657750
  26.7753920  34.0994430  91.4730120  25.9474060  32.8771190  91.1379820
  25.2331510  17.3737050  77.1697510  24.8853510  16.6961040  76.5899960
  25.4344280  16.9126560  77.9840900  27.3980550  32.3617800  78.7884110
  28.2931340  32.7002770  78.8102870  27.4298180  31.6397210  78.1608390
  21.0376710  27.7344850  77.0171110  21.4751580  28.2774520  77.6728690
  21.5224440  26.9091800  77.0267450  18.2522510  30.5233880  84.4691370
  18.5825520  29.6554940  84.2370010  18.6813510  30.7292400  85.2996330
  22.8484430  28.8542890  82.1293340  22.5479970  28.7307860  83.0297250
  22.7421920  27.9951480  81.7209070  18.7412720  31.3904470  87.2073000
  18.3043710  31.5705270  88.0397150  19.3090400  32.1479090  87.0654720
  34.3774900  30.8921470  91.4950310  33.7776890  30.9514030  90.7514230
  34.5068800  29.9526450  91.6247160  35.6176350  28.6339290  76.8320020
  34.7869310  28.7015940  77.3027250  35.7948180  29.5243410  76.5286880
  35.0732810  25.3786770  79.3354220  35.8351720  25.9483420  79.4413910
  35.0887180  24.8113970  80.1062530  18.5737150  23.9024700  83.5661880
  17.9185990  23.6336340  82.9221580  19.4115100  23.7929180  83.1163860
  36.0792780  26.2336870  84.1796150  36.4501610  25.4504190  83.7732120
  36.7194710  26.9225970  84.0013450  33.0626540  27.6173450  89.5926470
  32.2486380  28.0470610  89.8552260  33.4700740  28.2291860  88.9795520
  35.1251980  25.6721140  76.4926740  35.4000820  26.5800020  76.3645960
  34.9362720  25.6083670  77.4288730  31.5227590  18.6965990  77.7880370
  31.9412470  18.5096970  76.9477030  31.2163650  17.8445040  78.0983300
  35.0217320  23.6090130  81.4856170  34.6460920  22.8418060  81.0537460
  34.2920440  23.9912830  81.9731100  19.6113080  24.2877270  88.1065220
  19.9786120  24.2004670  88.9861240  19.0423900  23.5243820  88.0072080
  34.4116940  22.7561650  91.1195690  34.1803030  22.5274400  90.2193640
  34.6721490  23.6761200  91.0740580  19.1629080  21.1986360  92.0123640
  18.2685130  21.1653120  92.3517350  19.7026630  21.3973150  92.7774890
  17.7875230  21.1123630  79.5087210  16.8839310  21.3753830  79.3338870
  18.2715850  21.3834800  78.7287170  34.2968280  21.8347620  84.7863410
  34.8205760  21.3410270  84.1553580  34.8827700  21.9697980  85.5310980
  34.4758000  21.9187490  88.3082960  33.5260710  21.8851030  88.4227950
  34.6571010  22.8287600  88.0732730  20.3302440  20.1689170  77.4181590
  21.0394140  19.7472390  76.9328870  19.6142380  20.2364400  76.7864940
  19.9776600  16.2228500  76.4584240  20.7004730  16.7637440  76.7765460
  20.2501120  15.9491920  75.5825780  33.7868250  21.0920970  80.7255820
  34.2827370  20.8591840  81.5104700  33.5884320  20.2532810  80.3093460
  19.6668790  15.4734690  86.3606860  20.3144980  14.9232070  85.9202020
  20.0870630  15.7277840  87.1822670  35.2155410  19.7281920  83.2593500
  35.1054690  19.5737960  84.1975770  35.9763000  19.2002860  83.0168910
  33.5621130  15.6676050  89.7176500  34.1993350  16.2810190  90.0835690
  33.7096020  15.7036710  88.7725730  36.1045680  17.5589840  76.4999640
  37.0294990  17.4271020  76.2917930  36.0821470  17.6382660  77.4536090
  36.1784170  18.3300500  79.1256350  35.3835670  18.2645620  79.6549260
  36.3827450  19.2651140  79.1141700  33.1202590  32.3692050  83.1194740
  33.7161660  32.0476620  82.4429160  33.3780740  31.8963870  83.9108010
  19.4200790  15.6290360  89.1032180  19.0715610  16.0854180  89.8690360
  19.0888490  14.7347490  89.1854610  24.7271190  30.3569550  88.8695090
  24.4862550  30.6244110  87.9825610  25.6673830  30.5275280  88.9245950
  26.9325610  16.8202240  92.6251600  26.8714500  17.4124070  93.3747010
  27.8725990  16.7128200  92.4801860  29.5700170  16.4772300  92.2643890
  30.1840580  16.7951590  91.6024970  30.1149730  15.9920890  92.8839750
  35.9875350  32.3763930  89.6705730  35.4933630  32.7732800  88.9532860
  35.3788640  31.7513140  90.0643010  20.0921430  15.1566560  92.3782950
  20.6404420  14.9754610  91.6149060  20.1576740  14.3660670  92.9139260
  20.8653190  31.7472210  90.3883150  20.2713510  31.6156910  91.1273190
  20.8577030  30.9110350  89.9225250  30.3108210  15.0404440  88.5913180
  29.4368050  15.3739550  88.3886110  30.2018960  14.5677620  89.4165050
  31.2180190  17.2475310  89.9754900  30.8893550  16.4327070  89.5956630
  32.1662490  17.2045120  89.8520590  33.6714800  33.0187350  86.9492470
  33.2117770  33.7703160  86.5750490  33.0427260  32.2993820  86.8907270
  20.4965420  29.1130590  89.3391190  19.7699480  28.4935880  89.2717140
  20.5574570  29.5071200  88.4689270  24.1010520  31.3275590  86.1240600
  24.6175540  30.7162950  85.5988860  24.7507900  31.8304370  86.6151610
  26.8406020  32.2184080  86.9509580  27.1283830  31.9638380  86.0742590
  27.3529240  31.6661440  87.5415150  28.0583030  15.9574280  87.5306090
  27.2754820  16.4319780  87.8102850  27.7645960  15.0529110  87.4219270
  32.6104100  16.6597380  85.5755180  33.0512190  16.6042480  84.7276780
  32.3411690  17.5755390  85.6465360  34.4742670  16.2912620  83.5864000
  34.4131070  15.3473840  83.4395020  35.2534700  16.3992710  84.1317460
  18.7795420  32.4304980  82.5487950  18.6117460  31.7975660  83.2469840
  17.9129930  32.6364380  82.1982140  19.4023440  16.2621760  80.0519810
  20.1602800  16.3750640  79.4783840  18.9400610  17.0990960  80.0063240
  25.9437250  18.3761030  83.0422120  25.1311760  18.0017920  82.7018000
  26.4478890  17.6206110  83.3443310  30.4462230  15.0403480  84.2805190
  31.0491600  15.6123690  84.7553710  29.7055220  15.6042920  84.0579090
  33.5896830  15.4425040  79.5545470  33.7847460  16.3408490  79.8212900
  32.8026700  15.2112120  80.0478420  20.3858120  31.1238210  79.9938090
  19.8605740  31.5046240  79.2900050  20.3102700  31.7488980  80.7147800
  21.7748590  16.7885810  78.5921780  22.3041350  16.0015610  78.4629730
  22.4076910  17.4677000  78.8257310  23.9686430  16.5260950  81.6467170
  23.3389170  15.8248260  81.8137300  23.4291570  17.2865080  81.4300330
  35.1423440  32.6825750  81.3152030  35.3175630  31.9963490  80.6712950
  34.4445010  33.2072800  80.9228700  22.9851090  33.0720590  78.8687340
  23.7169910  32.7879870  78.3211230  23.2444760  32.8333870  79.7586720
  22.1465880  29.1885320  78.8733670  21.5174760  29.6570420  79.4219500
  22.2613710  28.3434540  79.3079860  29.6015600  23.2390980  65.0234870
  29.5209650  22.3245590  64.7526580  29.1880020  23.7358050  64.3174580
  27.7333640  25.0170000  66.9044140  26.9575740  24.5370440  67.1942710
  28.3846570  24.3375650  66.7300300  21.7499470  25.3289810  67.7819900
  20.9184350  25.0738520  68.1816410  22.3580450  25.4000580  68.5177820
  31.7541070  29.4230190  65.6843270  31.2922600  28.6517430  66.0130440
  32.5666620  29.4496260  66.1895720  21.7300730  29.3629900  67.9777920
  22.0328770  28.4727640  67.7988140  22.4744320  29.9200120  67.7500170
  20.1591420  20.2891700  61.5662290  19.2708120  20.6307670  61.4642170
  20.4432610  20.0892020  60.6743120  18.1224430  22.8897350  67.4501990
  18.6940540  22.1219550  67.4505630  18.1225970  23.1886110  66.5408600
  27.9804380  31.7088200  65.3047260  27.3615820  32.1645700  64.7341700
  28.8356160  31.8639660  64.9036960  27.1742630  27.6927190  66.9114300
  27.1050910  26.7517130  66.7503430  27.9362490  27.7828600  67.4836870
  19.3649300  18.2981710  69.2370920  19.1852140  17.4007460  69.5173680
  18.9629380  18.8453580  69.9117870  28.2047800  20.4997570  67.1383230
  28.5812620  19.6269450  67.0256900  28.1067310  20.8356270  66.2473670
  22.3352810  18.8723200  62.6000670  22.4419560  19.7726930  62.9069430
  21.4245170  18.8241170  62.3095320  31.9871920  17.9948010  64.0711570
  32.8081540  17.5044580  64.1137050  32.0206000  18.5845670  64.8243410
  19.9835970  20.7942210  67.8453260  20.6646080  21.0580580  68.4640660
  19.6684020  19.9543080  68.1791270  24.1760540  21.8409570  66.9325850
  24.6838760  22.3390540  67.5730870  24.7073780  21.0644770  66.7565210
  36.2771470  20.0114760  70.6355200  35.5723640  20.3996470  70.1170310
  36.5429390  20.7065050  71.2376130  22.4596640  16.4808130  71.1989270
  22.4615080  16.9980520  70.3935170  21.6300950  16.0038310  71.1759200
  28.8467730  26.5927440  62.6979170  28.2285000  27.0576890  62.1341890
  29.3590980  27.2854920  63.1148680  23.7099490  26.1203310  69.3762770
  23.3768870  26.7472230  70.0183840  23.8866170  26.6465190  68.5964440
  32.2233400  19.9348390  66.8439110  31.5188970  20.2233280  67.4242220
  32.5845560  20.7448500  66.4838670  22.1411970  18.1918090  69.2059720
  22.4828780  19.0360140  68.9113590  21.2027780  18.3401830  69.3225060
  22.9218590  28.0884110  71.1911950  23.5392590  28.7635190  70.9096400
  22.0611710  28.4972090  71.0999450  18.2150930  27.2783970  60.0718800
  17.8378910  27.7671070  59.3403700  18.4724000  27.9509250  60.7025330
  33.8396180  29.5523520  69.1066590  33.1559700  30.2222630  69.0983260
  34.3790470  29.7504170  68.3411450  35.2920320  19.3803180  67.2348320
  34.3445230  19.4142160  67.3663750  35.6170310  20.1942130  67.6197680
  25.8239860  15.6800360  65.5304310  26.1314840  15.1247250  64.8139810
  24.8940560  15.8144820  65.3477300  31.3754920  31.3967650  67.8211770
  31.3882080  30.9929940  66.9534030  30.8230140  32.1714940  67.7173200
  32.6700340  28.1183870  62.9101940  32.5596670  27.1758200  63.0351360
  32.6668590  28.4799510  63.7964700  30.7740360  26.2997490  69.1494380
  31.1909150  26.0857600  68.3147840  31.4980180  26.5570280  69.7203000
  28.2120620  23.7449190  62.2664430  27.2849900  23.6786570  62.4952900
  28.3645440  24.6829320  62.1519670  28.1989700  20.0166190  59.2631590
  27.2593370  20.1780150  59.3484050  28.5172960  20.7351870  58.7167580
  34.7202460  24.6984710  69.2410620  33.8921090  24.7677800  68.7660750
  35.3152940  25.2839020  68.7726450  32.2417910  25.3069490  62.7699680
  31.6230330  24.9689040  62.1225980  32.2242360  24.6629250  63.4778870
  31.6844470  21.4854030  70.1865490  31.2715650  22.3107740  70.4405480
  30.9520420  20.8999070  69.9941850  23.8177260  24.2713930  65.0484160
  23.4134260  23.5591180  64.5530060  23.9040380  23.9267170  65.9372200
  24.2858960  27.9581490  67.2123370  23.9887250  27.3526960  66.5331150
  25.2358780  27.9958800  67.1012730  22.5305880  21.0457140  68.8283200
  23.0820470  21.1552480  68.0536450  23.0449390  21.4194740  69.5438430
  32.3744570  31.5313360  70.8746470  31.8975130  32.3385550  70.6819080
  31.6906360  30.8791690  71.0272680  23.3777390  27.6963180  73.8631170
  22.4805920  27.9203150  74.1104570  23.4030260  27.8198120  72.9142570
  30.4182610  24.5456300  59.7772430  30.8575890  23.7078730  59.6310250
  31.1311030  25.1785700  59.8636570  22.2048610  24.5676500  72.4388540
  22.0656380  25.4399300  72.8075940  21.3229970  24.2249310  72.2936480
  28.5277990  29.4852370  63.7453670  28.9673900  30.2276700  63.3309060
  28.4664880  29.7278940  64.6692630  24.0028960  30.5098200  74.6473690
  23.9744390  30.9141150  73.7802120  23.8393930  29.5808560  74.4845290
  33.9999750  15.7999110  58.0913470  33.6872410  15.8925940  58.9912540
  34.7612220  16.3780140  58.0410900  20.5181890  23.1658910  62.5490810
  20.3979490  23.8921000  61.9372080  20.2082780  22.3961820  62.0718720
  35.9543780  31.2925300  75.9437860  36.4303500  31.7708190  76.6226940
  36.5750940  31.2242790  75.2183360  18.1567260  26.3374050  68.3559450
  18.2347680  26.4722820  67.4115170  18.7708940  25.6289940  68.5487570
  19.4014890  28.0374240  64.7665630  18.9942970  28.1788830  63.9119230
  20.2927900  27.7534400  64.5636840  35.3577030  28.4838150  73.1037870
  35.4840090  28.2450030  72.1855050  35.3998410  27.6522690  73.5759950
  29.2193770  32.1866150  71.6732680  29.7338440  32.0974160  72.4755110
  28.3762850  32.5325850  71.9660590  31.1948170  32.4721490  61.1016680
  31.0349310  32.1824430  61.9998510  31.0294880  31.6961620  60.5661910
  23.6736550  32.2520020  62.8788300  23.4979030  31.3355560  62.6656100
  22.8192290  32.6107310  63.1186100  30.8974300  29.9809050  59.6614680
  30.2039460  29.9786340  59.0016960  31.6397160  29.5568370  59.2308850
  30.4624230  31.6071760  63.7363170  30.9181180  30.8261140  64.0501790
  30.8016750  32.3178580  64.2804350  35.2101040  20.5370610  74.0687610
  34.5945310  21.0450280  73.5403070  34.8897460  19.6368940  74.0113550
  18.2126780  27.3788220  70.8953910  18.3757820  26.9093580  70.0773280
  18.6779230  26.8711780  71.5602750  22.9845550  16.5093980  65.9314480
  22.5413700  17.2903520  65.5999000  23.5430540  16.8323870  66.6385420
  27.2715360  19.3762500  71.5349800  26.8094730  19.5845520  72.3469740
  26.8693470  18.5621850  71.2320470  32.2719870  20.5971450  72.6646460
  31.4213460  20.2977200  72.9855530  32.1121660  20.8413460  71.7530280
  29.3669580  22.0973200  74.7645250  29.6922990  21.2636950  74.4247480
  30.1549910  22.6201720  74.9123580  26.1004370  16.1304680  60.8120310
  25.4758550  16.1264550  61.5373620  26.0134490  15.2635640  60.4156280
  25.0221450  17.0541310  67.7904080  25.3193780  17.9604140  67.7096100
  25.5707010  16.5660090  67.1763650  22.7759770  21.6327550  63.6595730
  22.5500690  21.4164720  64.5642350  21.9952300  22.0656010  63.3141700
  30.0057530  21.6390920  62.2586380  29.4066420  22.3626720  62.0750000
  30.5537140  21.5767700  61.4762830  25.2158980  22.5313130  74.3256000
  25.1202580  21.5907860  74.1756400  26.0590960  22.7528200  73.9304070
  28.6122400  20.2754460  64.2889660  29.0051970  20.5926660  63.4758350
  28.9739250  19.3966340  64.4034180  20.3469520  18.9426800  72.4789780
  19.9532910  19.7902010  72.6862560  19.6587920  18.3053170  72.6698420
  26.9214570  19.0261770  75.5486520  26.2312890  18.8333970  76.1832610
  27.6646870  19.3096410  76.0810820  17.6486570  16.8655260  66.5119860
  17.3599620  17.4358120  67.2244840  18.3932330  16.3859710  66.8751090
  17.8356800  20.8075380  57.7222580  17.7531470  21.7506140  57.8637570
  17.4839860  20.6650290  56.8434930  29.1977540  22.8660210  68.3840440
  28.4658660  23.3747020  68.7330540  28.8001880  22.0490190  68.0829220
  25.6354930  19.5414410  66.7892930  25.6390990  19.1004360  65.9397470
  26.5306050  19.8631740  66.8964750  21.4857310  19.4240900  65.7487140
  21.1457360  19.9016130  66.5054190  20.7234630  18.9706020  65.3888240
  25.6975080  20.5426490  59.7799690  25.8187900  20.5012970  60.7285510
  25.3123590  21.4050640  59.6246420  29.6603450  18.3193890  67.7963380
  29.6776190  18.7702540  68.6405230  29.4119030  17.4199530  68.0096820
  24.7096580  22.8527630  59.1782990  24.1413480  22.4045880  58.5518900
  25.4185580  23.2120410  58.6448140  33.0874200  15.7326070  73.6349760
  33.4119970  15.0015730  74.1607740  33.1230710  15.4139710  72.7330750
  19.7865760  26.7539650  73.0549720  19.4020550  26.1133320  73.6532680
  20.0977950  27.4575770  73.6244450  25.9362900  23.6016190  68.5358340
  26.3033030  23.1274760  69.2819680  25.7467960  24.4757760  68.8766680
  18.8003390  18.3459880  64.6651810  18.5150310  17.9815550  65.5030430
  18.7382250  17.6140340  64.0514950  23.7262270  22.6424830  70.8542550
  23.4219340  23.5216810  71.0792910  24.6808730  22.7024620  70.8899990
  22.2544060  26.8485820  61.4509400  21.4806320  26.3083440  61.2908120
  22.9838690  26.3292430  61.1127160  33.0132040  25.8451180  67.2435790
  33.7331160  26.3406470  66.8531900  32.8113860  25.1669070  66.5989660
  28.4741980  17.2389140  61.3865180  27.6606590  16.7402310  61.3110490
  28.2803930  18.0787390  60.9701530  28.3950840  25.9160240  73.1304790
  28.3288150  24.9955910  72.8762380  27.7655980  26.0135680  73.8449430
  31.1890370  21.6108790  59.6827340  32.0769990  21.9226020  59.5078680
  31.1595460  20.7381040  59.2907920  22.2981460  26.5166200  65.0888210
  22.8160130  25.7134460  65.0345100  21.8465480  26.4545340  65.9305040
  27.1850960  27.7832480  60.3615510  27.5266660  28.5274710  59.8658830
  26.3563670  28.0963600  60.7240340  19.7826000  23.4827570  72.0013910
  19.4240940  24.1481420  72.5887250  19.4880560  22.6511120  72.3726530
  22.9839120  23.9411810  74.8853460  22.6839260  24.0868990  73.9881280
  23.7550360  23.3817100  74.7926850  28.3267570  28.7380810  72.8808590
  28.3412110  27.8061770  72.6627500  27.6192670  28.8240570  73.5198360
  33.4604640  22.9220630  59.1507200  33.3768360  23.3534850  58.3003640
  34.1798830  23.3818980  59.5834020  34.5378780  25.3788150  72.2277170
  33.8126970  25.9716930  72.0306560  35.0654240  25.3711690  71.4290540
  34.4891890  29.7762890  61.8789330  33.8468050  29.1218510  62.1533050
  34.1022550  30.1817980  61.1030000  30.0678370  27.1048320  65.7261020
  30.4202190  26.5076450  65.0662390  29.1840700  26.7792550  65.8969270
  26.1541650  27.8646010  63.1331430  26.8412780  28.4115220  63.5139020
  25.3674070  28.4086740  63.1681040  18.2934050  23.4818830  58.6248510
  19.1628900  23.7643630  58.9084430  17.8024370  24.2954700  58.5097320
  25.4568860  24.8692040  62.7456790  25.9131640  25.6797290  62.9716980
  25.1057070  24.5515180  63.5775280  27.7601470  30.3798380  69.9749090
  28.4043690  30.5857760  70.6522510  28.1230910  29.6186780  69.5219940
  21.3580640  15.2129690  63.2179310  21.2295270  15.2047590  64.1664230
  20.5342660  15.5512780  62.8670320  29.0333550  28.3830730  68.6926540
  29.6755780  27.6823890  68.8058710  29.5582900  29.1629170  68.5123430
  32.8789270  28.6679350  58.4165680  32.6526850  27.9509790  59.0090320
  32.4885470  28.4191790  57.5787430  30.8071170  29.1825630  71.8962600
  31.1427410  29.7692320  72.5740520  29.8871510  29.0518340  72.1260390
  18.6605300  32.6946210  59.1910140  19.0202940  33.2935550  58.5367410
  18.5197640  33.2406100  59.9645170  18.3574570  16.9720810  72.6786010
  17.6433090  17.1717730  73.2838620  18.7769610  16.1960380  73.0500810
  32.4605520  26.5851290  60.0779840  32.1727220  27.0463980  60.8657720
  33.2557690  26.1249060  60.3464060  18.6447160  30.9601070  73.6652540
  18.7538280  30.0195810  73.5247930  17.9927720  31.2255820  73.0166270
  26.6359750  29.2316960  75.0650660  26.3156620  28.5126200  75.6096350
  25.9618110  29.9072030  75.1386720  24.6773920  30.0777410  60.0083810
  24.6684020  30.8107100  59.3928320  23.7572280  29.8308990  60.1010770
  20.2780560  25.2992300  60.7530570  19.6708510  26.0391200  60.7625870
  20.7529910  25.3891660  59.9268770  29.8513350  19.4643120  70.4287460
  30.2194170  18.6438330  70.7567030  28.9911550  19.5245010  70.8443110
  33.2175380  18.4200060  61.2375020  32.5888540  18.5245730  60.5233250
  32.7227300  18.6396840  62.0268900  27.6633520  30.1405650  58.6709000
  27.7645500  29.9369640  57.7410980  26.7635260  29.8863930  58.8756780
  25.1859410  20.6986010  62.6532900  24.4775560  21.1672350  63.0946510
  25.4703890  20.0408020  63.2878090  26.8115340  22.1182710  70.6525430
  27.3100590  22.5928530  71.3177280  26.9538290  21.1946230  70.8595460
  29.2174840  17.4236670  64.0928690  29.0942620  17.4422800  63.1438200
  30.1659400  17.4715610  64.2127090  26.3051630  32.6591970  63.3656670
  26.5593130  32.6213360  62.4436040  25.3564110  32.5325300  63.3584920
  23.3894430  19.0071090  60.0283610  24.2384960  19.4441240  59.9623800
  23.0225700  19.3191350  60.8555670  34.0182200  18.3350670  71.4953820
  33.5155800  19.0756070  71.8347630  34.8338860  18.7234670  71.1790610
  32.3104210  23.5783850  64.9415180  31.3694350  23.5934080  65.1162870
  32.6248280  22.7919810  65.3875480  22.2885850  25.2603450  58.5019140
  23.0549120  25.1484810  59.0644570  22.3660540  24.5641420  57.8495910
  20.9832610  22.6928520  59.1852030  21.0636200  21.7456030  59.2969430
  21.8752360  23.0235400  59.2912690  34.3129790  30.7492700  66.6169440
  34.4377210  31.5723870  67.0893250  35.1795350  30.5383430  66.2693590
  21.7847320  32.8423910  66.2886570  22.5209800  32.2939370  66.5595140
  22.1688240  33.7079920  66.1492560  18.6692800  28.9097480  62.1628080
  17.7432580  29.1518620  62.1533490  19.1349230  29.7371740  62.0412830
  20.7905600  32.0269980  75.4772150  21.5918330  32.3482030  75.8907550
  20.2757420  31.6665560  76.1992060  24.8949630  32.0154220  58.1112140
  25.6878240  32.3043050  57.6593930  24.3753980  31.5846390  57.4324620
  29.6270230  28.1349850  75.4247560  29.0208390  28.1581450  74.6843310
  29.3224340  27.4032890  75.9614810  31.0570600  31.8630140  74.0356970
  32.0092350  31.7788160  73.9857210  30.9098820  32.5271850  74.7090760
  33.9479800  31.2424350  59.5348880  33.6621310  30.8289490  58.7203060
  33.7499350  32.1712060  59.4149400  18.5103410  24.5143440  74.4208200
  19.0142430  23.9350720  74.9924430  17.7710830  24.7983670  74.9584570
  25.4127030  27.2357630  57.9754490  25.3077670  26.6209980  58.7015870
  25.2451250  26.7123520  57.1917500  25.5641350  25.9214430  73.9543720
  24.7987020  26.4899430  73.8698390  25.7457310  25.6290640  73.0611950
  28.6529760  26.2977660  58.5796480  28.1039860  26.7446960  59.2239220
  29.2749020  25.7926910  59.1034150  32.7064700  27.6519760  74.5118740
  33.4474170  27.9895520  74.0086200  31.9437380  27.8211820  73.9588510
  20.5426490  22.6573030  75.3158270  20.5831830  22.3586900  76.2243500
  21.3971990  23.0580640  75.1565790  24.3204880  25.2568580  60.4761780
  24.7421300  25.0908450  61.3193170  24.4455720  24.4468810  59.9816920
  22.4832300  21.2365130  73.2832760  21.9528760  20.7456080  72.6556100
  23.1520370  21.6649330  72.7490690  26.8332520  24.2806190  57.7238880
  27.3538180  23.5655210  57.3580030  27.4800920  24.9192060  58.0239390
  31.3810360  25.7034590  73.0473950  31.7951380  25.8579670  73.8964370
  30.4461360  25.8289810  73.2099730  31.8532530  23.0430750  75.0513100
  32.4353300  22.2883070  74.9633580  32.0294300  23.5738190  74.2744580
  22.9704600  18.2027500  73.3630050  22.8761470  17.5848250  72.6380920
  22.3901990  18.9293790  73.1359960  25.7366040  16.7600740  70.3957440
  25.2883340  16.7825000  69.5502990  25.1031240  16.3619760  70.9927740
  26.1425590  25.6555070  71.0169880  26.5613700  26.4987800  70.8446120
  25.2234220  25.7927110  70.7876660  28.4789490  23.3871250  72.4007720
  28.5985700  22.7912390  73.1402560  29.3383490  23.4240940  71.9809020
  30.8177390  23.9408440  70.9770230  30.2912610  24.4651060  70.3735370
  31.1608730  24.5735830  71.6079960  23.2163780  21.3301810  57.4219940
  23.0152840  20.4669170  57.7833280  23.0455830  21.2435170  56.4841540
  23.9933010  31.9608080  72.1327610  23.4554100  32.6854140  71.8136310
  24.2466970  31.4838420  71.3424950  25.2458260  19.9292600  73.6583540
  25.8357950  19.6208450  74.3461360  24.4278500  19.4572350  73.8143440
  30.0651690  19.5458410  73.8916560  29.3767210  18.8839950  73.8266550
  30.7857710  19.0996680  74.3365020  30.6952090  16.1410040  59.9506820
  30.9754380  15.2977940  60.3066240  29.9217820  16.3733150  60.4645570
  22.0146580  18.4302430  57.4097820  22.3172480  18.4369860  56.5016970
  22.7541170  18.0800290  57.9065480  26.8495220  33.1959290  72.3914260
  26.7753920  34.0994430  72.6986630  25.9474060  32.8771190  72.3636330
  25.2331510  17.3737050  58.3954020  24.8853510  16.6961040  57.8156470
  25.4344280  16.9126560  59.2097410  27.3980550  32.3617800  60.0140620
  28.2931340  32.7002770  60.0359380  27.4298180  31.6397210  59.3864900
  21.0376710  27.7344850  58.2427620  21.4751580  28.2774520  58.8985200
  21.5224440  26.9091800  58.2523960  18.2522510  30.5233880  65.6947880
  18.5825520  29.6554940  65.4626520  18.6813510  30.7292400  66.5252840
  22.8484430  28.8542890  63.3549850  22.5479970  28.7307860  64.2553760
  22.7421920  27.9951480  62.9465580  18.7412720  31.3904470  68.4329510
  18.3043710  31.5705270  69.2653660  19.3090400  32.1479090  68.2911230
  34.3774900  30.8921470  72.7206820  33.7776890  30.9514030  71.9770740
  34.5068800  29.9526450  72.8503670  35.0732810  25.3786770  60.5610730
  35.8351720  25.9483420  60.6670420  35.0887180  24.8113970  61.3319040
  18.5737150  23.9024700  64.7918390  17.9185990  23.6336340  64.1478090
  19.4115100  23.7929180  64.3420370  36.0792780  26.2336870  65.4052660
  36.4501610  25.4504190  64.9988630  36.7194710  26.9225970  65.2269960
  33.0626540  27.6173450  70.8182980  32.2486380  28.0470610  71.0808770
  33.4700740  28.2291860  70.2052030  35.1251980  25.6721140  57.7183250
  35.4000820  26.5800020  57.5902470  34.9362720  25.6083670  58.6545240
  31.5227590  18.6965990  59.0136880  31.9412470  18.5096970  58.1733540
  31.2163650  17.8445040  59.3239810  35.0217320  23.6090130  62.7112680
  34.6460920  22.8418060  62.2793970  34.2920440  23.9912830  63.1987610
  19.6113080  24.2877270  69.3321730  19.9786120  24.2004670  70.2117750
  19.0423900  23.5243820  69.2328590  34.4116940  22.7561650  72.3452200
  34.1803030  22.5274400  71.4450150  34.6721490  23.6761200  72.2997090
  19.1629080  21.1986360  73.2380150  18.2685130  21.1653120  73.5773860
  19.7026630  21.3973150  74.0031400  32.8505010  17.9818080  75.1231900
  33.7275190  17.9901480  75.5065900  32.8625850  17.2448920  74.5124250
  17.7875230  21.1123630  60.7343720  16.8839310  21.3753830  60.5595380
  18.2715850  21.3834800  59.9543680  34.2968280  21.8347620  66.0119920
  34.8205760  21.3410270  65.3810090  34.8827700  21.9697980  66.7567490
  34.4758000  21.9187490  69.5339470  33.5260710  21.8851030  69.6484460
  34.6571010  22.8287600  69.2989240  20.3302440  20.1689170  58.6438100
  21.0394140  19.7472390  58.1585380  19.6142380  20.2364400  58.0121450
  19.9776600  16.2228500  57.6840750  20.7004730  16.7637440  58.0021970
  20.2501120  15.9491920  56.8082290  33.7868250  21.0920970  61.9512330
  34.2827370  20.8591840  62.7361210  33.5884320  20.2532810  61.5349970
  19.6668790  15.4734690  67.5863370  20.3144980  14.9232070  67.1458530
  20.0870630  15.7277840  68.4079180  35.2155410  19.7281920  64.4850010
  35.1054690  19.5737960  65.4232280  35.9763000  19.2002860  64.2425420
  33.5621130  15.6676050  70.9433010  34.1993350  16.2810190  71.3092200
  33.7096020  15.7036710  69.9982240  36.1045680  17.5589840  57.7256150
  37.0294990  17.4271020  57.5174440  36.0821470  17.6382660  58.6792600
  36.1784170  18.3300500  60.3512860  35.3835670  18.2645620  60.8805770
  36.3827450  19.2651140  60.3398210  33.1202590  32.3692050  64.3451250
  33.7161660  32.0476620  63.6685670  33.3780740  31.8963870  65.1364520
  19.4200790  15.6290360  70.3288690  19.0715610  16.0854180  71.0946870
  19.0888490  14.7347490  70.4111120  21.0265160  28.8009960  74.4941880
  20.9834790  28.4302870  75.3756340  21.1576170  29.7387530  74.6343700
  24.7271190  30.3569550  70.0951600  24.4862550  30.6244110  69.2082120
  25.6673830  30.5275280  70.1502460  26.9325610  16.8202240  73.8508110
  26.8714500  17.4124070  74.6003520  27.8725990  16.7128200  73.7058370
  29.5700170  16.4772300  73.4900400  30.1840580  16.7951590  72.8281480
  30.1149730  15.9920890  74.1096260  35.9875350  32.3763930  70.8962240
  35.4933630  32.7732800  70.1789370  35.3788640  31.7513140  71.2899520
  20.0921430  15.1566560  73.6039460  20.6404420  14.9754610  72.8405570
  20.1576740  14.3660670  74.1395770  20.8653190  31.7472210  71.6139660
  20.2713510  31.6156910  72.3529700  20.8577030  30.9110350  71.1481760
  30.3108210  15.0404440  69.8169690  29.4368050  15.3739550  69.6142620
  30.2018960  14.5677620  70.6421560  31.2180190  17.2475310  71.2011410
  30.8893550  16.4327070  70.8213140  32.1662490  17.2045120  71.0777100
  33.6714800  33.0187350  68.1748980  33.2117770  33.7703160  67.8007000
  33.0427260  32.2993820  68.1163780  20.4965420  29.1130590  70.5647700
  19.7699480  28.4935880  70.4973650  20.5574570  29.5071200  69.6945780
  24.1010520  31.3275590  67.3497110  24.6175540  30.7162950  66.8245370
  24.7507900  31.8304370  67.8408120  26.8406020  32.2184080  68.1766090
  27.1283830  31.9638380  67.2999100  27.3529240  31.6661440  68.7671660
  28.0583030  15.9574280  68.7562600  27.2754820  16.4319780  69.0359360
  27.7645960  15.0529110  68.6475780  32.6104100  16.6597380  66.8011690
  33.0512190  16.6042480  65.9533290  32.3411690  17.5755390  66.8721870
  34.4742670  16.2912620  64.8120510  34.4131070  15.3473840  64.6651530
  35.2534700  16.3992710  65.3573970  18.7795420  32.4304980  63.7744460
  18.6117460  31.7975660  64.4726350  17.9129930  32.6364380  63.4238650
  19.4023440  16.2621760  61.2776320  20.1602800  16.3750640  60.7040350
  18.9400610  17.0990960  61.2319750  25.9437250  18.3761030  64.2678630
  25.1311760  18.0017920  63.9274510  26.4478890  17.6206110  64.5699820
  30.4462230  15.0403480  65.5061700  31.0491600  15.6123690  65.9810220
  29.7055220  15.6042920  65.2835600  33.5896830  15.4425040  60.7801980
  33.7847460  16.3408490  61.0469410  32.8026700  15.2112120  61.2734930
  20.3858120  31.1238210  61.2194600  19.8605740  31.5046240  60.5156560
  20.3102700  31.7488980  61.9404310  21.7748590  16.7885810  59.8178290
  22.3041350  16.0015610  59.6886240  22.4076910  17.4677000  60.0513820
  23.9686430  16.5260950  62.8723680  23.3389170  15.8248260  63.0393810
  23.4291570  17.2865080  62.6556840  26.9078380  33.1400180  75.5434290
  27.8345690  32.9044450  75.5870250  26.8928810  33.9672180  75.0620320
  35.1423440  32.6825750  62.5408540  35.3175630  31.9963490  61.8969460
  34.4445010  33.2072800  62.1485210  24.0941990  15.8044930  75.3076170
  23.8126260  16.3078530  74.5436990  24.4761690  15.0066680  74.9418300
  22.9851090  33.0720590  60.0943850  23.7169910  32.7879870  59.5467740
  23.2444760  32.8333870  60.9843230  22.1465880  29.1885320  60.0990180
  21.5174760  29.6570420  60.6476010  22.2613710  28.3434540  60.5336370
  30.6957450  15.2198510  75.8856640  30.5822900  15.5393120  76.7808160
  31.5127190  15.6211020  75.5893920  33.4755940  32.3670040  75.3675330
  34.2681260  31.8719270  75.1601290  33.7689090  33.0460180  75.9750940
  29.6015600  23.2390980  46.2491380  29.5209650  22.3245590  45.9783090
  29.1880020  23.7358050  45.5431090  27.7333640  25.0170000  48.1300650
  26.9575740  24.5370440  48.4199220  28.3846570  24.3375650  47.9556810
  21.7499470  25.3289810  49.0076410  20.9184350  25.0738520  49.4072920
  22.3580450  25.4000580  49.7434330  21.7300730  29.3629900  49.2034430
  22.0328770  28.4727640  49.0244650  22.4744320  29.9200120  48.9756680
  20.1591420  20.2891700  42.7918800  19.2708120  20.6307670  42.6898680
  20.4432610  20.0892020  41.8999630  18.1224430  22.8897350  48.6758500
  18.6940540  22.1219550  48.6762140  18.1225970  23.1886110  47.7665110
  27.9804380  31.7088200  46.5303770  27.3615820  32.1645700  45.9598210
  28.8356160  31.8639660  46.1293470  27.1742630  27.6927190  48.1370810
  27.1050910  26.7517130  47.9759940  27.9362490  27.7828600  48.7093380
  19.3649300  18.2981710  50.4627430  19.1852140  17.4007460  50.7430190
  18.9629380  18.8453580  51.1374380  28.2047800  20.4997570  48.3639740
  28.5812620  19.6269450  48.2513410  28.1067310  20.8356270  47.4730180
  22.3352810  18.8723200  43.8257180  22.4419560  19.7726930  44.1325940
  21.4245170  18.8241170  43.5351830  31.9871920  17.9948010  45.2968080
  32.8081540  17.5044580  45.3393560  32.0206000  18.5845670  46.0499920
  19.9835970  20.7942210  49.0709770  20.6646080  21.0580580  49.6897170
  19.6684020  19.9543080  49.4047780  24.1760540  21.8409570  48.1582360
  24.6838760  22.3390540  48.7987380  24.7073780  21.0644770  47.9821720
  22.4596640  16.4808130  52.4245780  22.4615080  16.9980520  51.6191680
  21.6300950  16.0038310  52.4015710  28.8467730  26.5927440  43.9235680
  28.2285000  27.0576890  43.3598400  29.3590980  27.2854920  44.3405190
  23.7099490  26.1203310  50.6019280  23.3768870  26.7472230  51.2440350
  23.8866170  26.6465190  49.8220950  32.2233400  19.9348390  48.0695620
  31.5188970  20.2233280  48.6498730  32.5845560  20.7448500  47.7095180
  22.1411970  18.1918090  50.4316230  22.4828780  19.0360140  50.1370100
  21.2027780  18.3401830  50.5481570  22.9218590  28.0884110  52.4168460
  23.5392590  28.7635190  52.1352910  22.0611710  28.4972090  52.3255960
  18.2150930  27.2783970  41.2975310  17.8378910  27.7671070  40.5660210
  18.4724000  27.9509250  41.9281840  35.2920320  19.3803180  48.4604830
  34.3445230  19.4142160  48.5920260  35.6170310  20.1942130  48.8454190
  25.8239860  15.6800360  46.7560820  26.1314840  15.1247250  46.0396320
  24.8940560  15.8144820  46.5733810  30.7740360  26.2997490  50.3750890
  31.1909150  26.0857600  49.5404350  31.4980180  26.5570280  50.9459510
  28.2120620  23.7449190  43.4920940  27.2849900  23.6786570  43.7209410
  28.3645440  24.6829320  43.3776180  28.1989700  20.0166190  40.4888100
  27.2593370  20.1780150  40.5740560  28.5172960  20.7351870  39.9424090
  32.2417910  25.3069490  43.9956190  31.6230330  24.9689040  43.3482490
  32.2242360  24.6629250  44.7035380  31.6844470  21.4854030  51.4122000
  31.2715650  22.3107740  51.6661990  30.9520420  20.8999070  51.2198360
  23.8177260  24.2713930  46.2740670  23.4134260  23.5591180  45.7786570
  23.9040380  23.9267170  47.1628710  24.2858960  27.9581490  48.4379880
  23.9887250  27.3526960  47.7587660  25.2358780  27.9958800  48.3269240
  22.5305880  21.0457140  50.0539710  23.0820470  21.1552480  49.2792960
  23.0449390  21.4194740  50.7694940  23.3777390  27.6963180  55.0887680
  22.4805920  27.9203150  55.3361080  23.4030260  27.8198120  54.1399080
  30.4182610  24.5456300  41.0028940  30.8575890  23.7078730  40.8566760
  31.1311030  25.1785700  41.0893080  22.2048610  24.5676500  53.6645050
  22.0656380  25.4399300  54.0332450  21.3229970  24.2249310  53.5192990
  28.5277990  29.4852370  44.9710180  28.9673900  30.2276700  44.5565570
  28.4664880  29.7278940  45.8949140  24.0028960  30.5098200  55.8730200
  23.9744390  30.9141150  55.0058630  23.8393930  29.5808560  55.7101800
  33.9999750  15.7999110  39.3169980  33.6872410  15.8925940  40.2169050
  34.7612220  16.3780140  39.2667410  20.5181890  23.1658910  43.7747320
  20.3979490  23.8921000  43.1628590  20.2082780  22.3961820  43.2975230
  18.1567260  26.3374050  49.5815960  18.2347680  26.4722820  48.6371680
  18.7708940  25.6289940  49.7744080  19.4014890  28.0374240  45.9922140
  18.9942970  28.1788830  45.1375740  20.2927900  27.7534400  45.7893350
  29.2193770  32.1866150  52.8989190  29.7338440  32.0974160  53.7011620
  28.3762850  32.5325850  53.1917100  35.2101040  20.5370610  55.2944120
  34.5945310  21.0450280  54.7659580  34.8897460  19.6368940  55.2370060
  18.2126780  27.3788220  52.1210420  18.3757820  26.9093580  51.3029790
  18.6779230  26.8711780  52.7859260  22.9845550  16.5093980  47.1570990
  22.5413700  17.2903520  46.8255510  23.5430540  16.8323870  47.8641930
  27.2715360  19.3762500  52.7606310  26.8094730  19.5845520  53.5726250
  26.8693470  18.5621850  52.4576980  32.2719870  20.5971450  53.8902970
  31.4213460  20.2977200  54.2112040  32.1121660  20.8413460  52.9786790
  29.3669580  22.0973200  55.9901760  29.6922990  21.2636950  55.6503990
  30.1549910  22.6201720  56.1380090  26.1004370  16.1304680  42.0376820
  25.4758550  16.1264550  42.7630130  26.0134490  15.2635640  41.6412790
  25.0221450  17.0541310  49.0160590  25.3193780  17.9604140  48.9352610
  25.5707010  16.5660090  48.4020160  22.7759770  21.6327550  44.8852240
  22.5500690  21.4164720  45.7898860  21.9952300  22.0656010  44.5398210
  30.0057530  21.6390920  43.4842890  29.4066420  22.3626720  43.3006510
  30.5537140  21.5767700  42.7019340  25.2158980  22.5313130  55.5512510
  25.1202580  21.5907860  55.4012910  26.0590960  22.7528200  55.1560580
  28.6122400  20.2754460  45.5146170  29.0051970  20.5926660  44.7014860
  28.9739250  19.3966340  45.6290690  20.3469520  18.9426800  53.7046290
  19.9532910  19.7902010  53.9119070  19.6587920  18.3053170  53.8954930
  26.9214570  19.0261770  56.7743030  26.2312890  18.8333970  57.4089120
  27.6646870  19.3096410  57.3067330  17.6486570  16.8655260  47.7376370
  17.3599620  17.4358120  48.4501350  18.3932330  16.3859710  48.1007600
  17.8356800  20.8075380  38.9479090  17.7531470  21.7506140  39.0894080
  17.4839860  20.6650290  38.0691440  29.1977540  22.8660210  49.6096950
  28.4658660  23.3747020  49.9587050  28.8001880  22.0490190  49.3085730
  25.6354930  19.5414410  48.0149440  25.6390990  19.1004360  47.1653980
  26.5306050  19.8631740  48.1221260  21.4857310  19.4240900  46.9743650
  21.1457360  19.9016130  47.7310700  20.7234630  18.9706020  46.6144750
  25.6975080  20.5426490  41.0056200  25.8187900  20.5012970  41.9542020
  25.3123590  21.4050640  40.8502930  29.6603450  18.3193890  49.0219890
  29.6776190  18.7702540  49.8661740  29.4119030  17.4199530  49.2353330
  24.7096580  22.8527630  40.4039500  24.1413480  22.4045880  39.7775410
  25.4185580  23.2120410  39.8704650  33.0874200  15.7326070  54.8606270
  33.4119970  15.0015730  55.3864250  33.1230710  15.4139710  53.9587260
  19.7865760  26.7539650  54.2806230  19.4020550  26.1133320  54.8789190
  20.0977950  27.4575770  54.8500960  25.9362900  23.6016190  49.7614850
  26.3033030  23.1274760  50.5076190  25.7467960  24.4757760  50.1023190
  18.8003390  18.3459880  45.8908320  18.5150310  17.9815550  46.7286940
  18.7382250  17.6140340  45.2771460  23.7262270  22.6424830  52.0799060
  23.4219340  23.5216810  52.3049420  24.6808730  22.7024620  52.1156500
  22.2544060  26.8485820  42.6765910  21.4806320  26.3083440  42.5164630
  22.9838690  26.3292430  42.3383670  33.0132040  25.8451180  48.4692300
  33.7331160  26.3406470  48.0788410  32.8113860  25.1669070  47.8246170
  28.4741980  17.2389140  42.6121690  27.6606590  16.7402310  42.5367000
  28.2803930  18.0787390  42.1958040  28.3950840  25.9160240  54.3561300
  28.3288150  24.9955910  54.1018890  27.7655980  26.0135680  55.0705940
  31.1890370  21.6108790  40.9083850  32.0769990  21.9226020  40.7335190
  31.1595460  20.7381040  40.5164430  22.2981460  26.5166200  46.3144720
  22.8160130  25.7134460  46.2601610  21.8465480  26.4545340  47.1561550
  19.7826000  23.4827570  53.2270420  19.4240940  24.1481420  53.8143760
  19.4880560  22.6511120  53.5983040  22.9839120  23.9411810  56.1109970
  22.6839260  24.0868990  55.2137790  23.7550360  23.3817100  56.0183360
  28.3267570  28.7380810  54.1065100  28.3412110  27.8061770  53.8884010
  27.6192670  28.8240570  54.7454870  33.4604640  22.9220630  40.3763710
  33.3768360  23.3534850  39.5260150  34.1798830  23.3818980  40.8090530
  34.5378780  25.3788150  53.4533680  33.8126970  25.9716930  53.2563070
  35.0654240  25.3711690  52.6547050  30.0678370  27.1048320  46.9517530
  30.4202190  26.5076450  46.2918900  29.1840700  26.7792550  47.1225780
  26.1541650  27.8646010  44.3587940  26.8412780  28.4115220  44.7395530
  25.3674070  28.4086740  44.3937550  18.2934050  23.4818830  39.8505020
  19.1628900  23.7643630  40.1340940  17.8024370  24.2954700  39.7353830
  25.4568860  24.8692040  43.9713300  25.9131640  25.6797290  44.1973490
  25.1057070  24.5515180  44.8031790  27.7601470  30.3798380  51.2005600
  28.4043690  30.5857760  51.8779020  28.1230910  29.6186780  50.7476450
  21.3580640  15.2129690  44.4435820  21.2295270  15.2047590  45.3920740
  20.5342660  15.5512780  44.0926830  29.0333550  28.3830730  49.9183050
  29.6755780  27.6823890  50.0315220  29.5582900  29.1629170  49.7379940
  30.8071170  29.1825630  53.1219110  31.1427410  29.7692320  53.7997030
  29.8871510  29.0518340  53.3516900  18.3574570  16.9720810  53.9042520
  17.6433090  17.1717730  54.5095130  18.7769610  16.1960380  54.2757320
  18.6447160  30.9601070  54.8909050  18.7538280  30.0195810  54.7504440
  17.9927720  31.2255820  54.2422780  26.6359750  29.2316960  56.2907170
  26.3156620  28.5126200  56.8352860  25.9618110  29.9072030  56.3643230
  20.2780560  25.2992300  41.9787080  19.6708510  26.0391200  41.9882380
  20.7529910  25.3891660  41.1525280  29.8513350  19.4643120  51.6543970
  30.2194170  18.6438330  51.9823540  28.9911550  19.5245010  52.0699620
  33.2175380  18.4200060  42.4631530  32.5888540  18.5245730  41.7489760
  32.7227300  18.6396840  43.2525410  25.1859410  20.6986010  43.8789410
  24.4775560  21.1672350  44.3203020  25.4703890  20.0408020  44.5134600
  26.8115340  22.1182710  51.8781940  27.3100590  22.5928530  52.5433790
  26.9538290  21.1946230  52.0851970  29.2174840  17.4236670  45.3185200
  29.0942620  17.4422800  44.3694710  30.1659400  17.4715610  45.4383600
  23.3894430  19.0071090  41.2540120  24.2384960  19.4441240  41.1880310
  23.0225700  19.3191350  42.0812180  34.0182200  18.3350670  52.7210330
  33.5155800  19.0756070  53.0604140  34.8338860  18.7234670  52.4047120
  32.3104210  23.5783850  46.1671690  31.3694350  23.5934080  46.3419380
  32.6248280  22.7919810  46.6131990  22.2885850  25.2603450  39.7275650
  23.0549120  25.1484810  40.2901080  22.3660540  24.5641420  39.0752420
  20.9832610  22.6928520  40.4108540  21.0636200  21.7456030  40.5225940
  21.8752360  23.0235400  40.5169200  18.6692800  28.9097480  43.3884590
  17.7432580  29.1518620  43.3790000  19.1349230  29.7371740  43.2669340
  20.7905600  32.0269980  56.7028660  21.5918330  32.3482030  57.1164060
  20.2757420  31.6665560  57.4248570  29.6270230  28.1349850  56.6504070
  29.0208390  28.1581450  55.9099820  29.3224340  27.4032890  57.1871320
  31.0570600  31.8630140  55.2613480  32.0092350  31.7788160  55.2113720
  30.9098820  32.5271850  55.9347270  18.5103410  24.5143440  55.6464710
  19.0142430  23.9350720  56.2180940  17.7710830  24.7983670  56.1841080
  25.5641350  25.9214430  55.1800230  24.7987020  26.4899430  55.0954900
  25.7457310  25.6290640  54.2868460  32.7064700  27.6519760  55.7375250
  33.4474170  27.9895520  55.2342710  31.9437380  27.8211820  55.1845020
  20.5426490  22.6573030  56.5414780  20.5831830  22.3586900  57.4500010
  21.3971990  23.0580640  56.3822300  24.3204880  25.2568580  41.7018290
  24.7421300  25.0908450  42.5449680  24.4455720  24.4468810  41.2073430
  22.4832300  21.2365130  54.5089270  21.9528760  20.7456080  53.8812610
  23.1520370  21.6649330  53.9747200  26.8332520  24.2806190  38.9495390
  27.3538180  23.5655210  38.5836540  27.4800920  24.9192060  39.2495900
  31.3810360  25.7034590  54.2730460  31.7951380  25.8579670  55.1220880
  30.4461360  25.8289810  54.4356240  31.8532530  23.0430750  56.2769610
  32.4353300  22.2883070  56.1890090  32.0294300  23.5738190  55.5001090
  22.9704600  18.2027500  54.5886560  22.8761470  17.5848250  53.8637430
  22.3901990  18.9293790  54.3616470  25.7366040  16.7600740  51.6213950
  25.2883340  16.7825000  50.7759500  25.1031240  16.3619760  52.2184250
  26.1425590  25.6555070  52.2426390  26.5613700  26.4987800  52.0702630
  25.2234220  25.7927110  52.0133170  28.4789490  23.3871250  53.6264230
  28.5985700  22.7912390  54.3659070  29.3383490  23.4240940  53.2065530
  30.8177390  23.9408440  52.2026740  30.2912610  24.4651060  51.5991880
  31.1608730  24.5735830  52.8336470  23.2163780  21.3301810  38.6476450
  23.0152840  20.4669170  39.0089790  23.0455830  21.2435170  37.7098050
  23.9933010  31.9608080  53.3584120  23.4554100  32.6854140  53.0392820
  24.2466970  31.4838420  52.5681460  25.2458260  19.9292600  54.8840050
  25.8357950  19.6208450  55.5717870  24.4278500  19.4572350  55.0399950
  30.0651690  19.5458410  55.1173070  29.3767210  18.8839950  55.0523060
  30.7857710  19.0996680  55.5621530  30.6952090  16.1410040  41.1763330
  30.9754380  15.2977940  41.5322750  29.9217820  16.3733150  41.6902080
  22.0146580  18.4302430  38.6354330  22.3172480  18.4369860  37.7273480
  22.7541170  18.0800290  39.1321990  26.8495220  33.1959290  53.6170770
  26.7753920  34.0994430  53.9243140  25.9474060  32.8771190  53.5892840
  25.2331510  17.3737050  39.6210530  24.8853510  16.6961040  39.0412980
  25.4344280  16.9126560  40.4353920  21.0376710  27.7344850  39.4684130
  21.4751580  28.2774520  40.1241710  21.5224440  26.9091800  39.4780470
  18.2522510  30.5233880  46.9204390  18.5825520  29.6554940  46.6883030
  18.6813510  30.7292400  47.7509350  22.8484430  28.8542890  44.5806360
  22.5479970  28.7307860  45.4810270  22.7421920  27.9951480  44.1722090
  18.7412720  31.3904470  49.6586020  18.3043710  31.5705270  50.4910170
  19.3090400  32.1479090  49.5167740  18.5737150  23.9024700  46.0174900
  17.9185990  23.6336340  45.3734600  19.4115100  23.7929180  45.5676880
  33.0626540  27.6173450  52.0439490  32.2486380  28.0470610  52.3065280
  33.4700740  28.2291860  51.4308540  31.5227590  18.6965990  40.2393390
  31.9412470  18.5096970  39.3990050  31.2163650  17.8445040  40.5496320
  35.0217320  23.6090130  43.9369190  34.6460920  22.8418060  43.5050480
  34.2920440  23.9912830  44.4244120  19.6113080  24.2877270  50.5578240
  19.9786120  24.2004670  51.4374260  19.0423900  23.5243820  50.4585100
  34.4116940  22.7561650  53.5708710  34.1803030  22.5274400  52.6706660
  34.6721490  23.6761200  53.5253600  19.1629080  21.1986360  54.4636660
  18.2685130  21.1653120  54.8030370  19.7026630  21.3973150  55.2287910
  32.8505010  17.9818080  56.3488410  33.7275190  17.9901480  56.7322410
  32.8625850  17.2448920  55.7380760  17.7875230  21.1123630  41.9600230
  16.8839310  21.3753830  41.7851890  18.2715850  21.3834800  41.1800190
  34.2968280  21.8347620  47.2376430  34.8205760  21.3410270  46.6066600
  34.8827700  21.9697980  47.9824000  20.3302440  20.1689170  39.8694610
  21.0394140  19.7472390  39.3841890  19.6142380  20.2364400  39.2377960
  19.9776600  16.2228500  38.9097260  20.7004730  16.7637440  39.2278480
  20.2501120  15.9491920  38.0338800  33.7868250  21.0920970  43.1768840
  34.2827370  20.8591840  43.9617720  33.5884320  20.2532810  42.7606480
  19.6668790  15.4734690  48.8119880  20.3144980  14.9232070  48.3715040
  20.0870630  15.7277840  49.6335690  35.2155410  19.7281920  45.7106520
  35.1054690  19.5737960  46.6488790  35.9763000  19.2002860  45.4681930
  33.5621130  15.6676050  52.1689520  34.1993350  16.2810190  52.5348710
  33.7096020  15.7036710  51.2238750  36.1045680  17.5589840  38.9512660
  37.0294990  17.4271020  38.7430950  36.0821470  17.6382660  39.9049110
  36.1784170  18.3300500  41.5769370  35.3835670  18.2645620  42.1062280
  36.3827450  19.2651140  41.5654720  19.4200790  15.6290360  51.5545200
  19.0715610  16.0854180  52.3203380  19.0888490  14.7347490  51.6367630
  21.0265160  28.8009960  55.7198390  20.9834790  28.4302870  56.6012850
  21.1576170  29.7387530  55.8600210  24.7271190  30.3569550  51.3208110
  24.4862550  30.6244110  50.4338630  25.6673830  30.5275280  51.3758970
  26.9325610  16.8202240  55.0764620  26.8714500  17.4124070  55.8260030
  27.8725990  16.7128200  54.9314880  29.5700170  16.4772300  54.7156910
  30.1840580  16.7951590  54.0537990  30.1149730  15.9920890  55.3352770
  20.0921430  15.1566560  54.8295970  20.6404420  14.9754610  54.0662080
  20.1576740  14.3660670  55.3652280  30.3108210  15.0404440  51.0426200
  29.4368050  15.3739550  50.8399130  30.2018960  14.5677620  51.8678070
  31.2180190  17.2475310  52.4267920  30.8893550  16.4327070  52.0469650
  32.1662490  17.2045120  52.3033610  20.4965420  29.1130590  51.7904210
  19.7699480  28.4935880  51.7230160  20.5574570  29.5071200  50.9202290
  24.1010520  31.3275590  48.5753620  24.6175540  30.7162950  48.0501880
  24.7507900  31.8304370  49.0664630  26.8406020  32.2184080  49.4022600
  27.1283830  31.9638380  48.5255610  27.3529240  31.6661440  49.9928170
  28.0583030  15.9574280  49.9819110  27.2754820  16.4319780  50.2615870
  27.7645960  15.0529110  49.8732290  32.6104100  16.6597380  48.0268200
  33.0512190  16.6042480  47.1789800  32.3411690  17.5755390  48.0978380
  34.4742670  16.2912620  46.0377020  34.4131070  15.3473840  45.8908040
  35.2534700  16.3992710  46.5830480  19.4023440  16.2621760  42.5032830
  20.1602800  16.3750640  41.9296860  18.9400610  17.0990960  42.4576260
  25.9437250  18.3761030  45.4935140  25.1311760  18.0017920  45.1531020
  26.4478890  17.6206110  45.7956330  30.4462230  15.0403480  46.7318210
  31.0491600  15.6123690  47.2066730  29.7055220  15.6042920  46.5092110
  33.5896830  15.4425040  42.0058490  33.7847460  16.3408490  42.2725920
  32.8026700  15.2112120  42.4991440  20.3858120  31.1238210  42.4451110
  19.8605740  31.5046240  41.7413070  20.3102700  31.7488980  43.1660820
  21.7748590  16.7885810  41.0434800  22.3041350  16.0015610  40.9142750
  22.4076910  17.4677000  41.2770330  23.9686430  16.5260950  44.0980190
  23.3389170  15.8248260  44.2650320  23.4291570  17.2865080  43.8813350
  26.9078380  33.1400180  56.7690800  27.8345690  32.9044450  56.8126760
  26.8928810  33.9672180  56.2876830  24.0941990  15.8044930  56.5332680
  23.8126260  16.3078530  55.7693500  24.4761690  15.0066680  56.1674810
  30.6957450  15.2198510  57.1113150  30.5822900  15.5393120  58.0064670
  31.5127190  15.6211020  56.8150430  29.6015600  23.2390980  27.4747890
  29.5209650  22.3245590  27.2039600  29.1880020  23.7358050  26.7687600
  27.7333640  25.0170000  29.3557160  26.9575740  24.5370440  29.6455730
  28.3846570  24.3375650  29.1813320  21.7499470  25.3289810  30.2332920
  20.9184350  25.0738520  30.6329430  22.3580450  25.4000580  30.9690840
  31.7541070  29.4230190  28.1356290  31.2922600  28.6517430  28.4643460
  32.5666620  29.4496260  28.6408740  21.7300730  29.3629900  30.4290940
  22.0328770  28.4727640  30.2501160  22.4744320  29.9200120  30.2013190
  20.1591420  20.2891700  24.0175310  19.2708120  20.6307670  23.9155190
  20.4432610  20.0892020  23.1256140  18.1224430  22.8897350  29.9015010
  18.6940540  22.1219550  29.9018650  18.1225970  23.1886110  28.9921620
  27.9804380  31.7088200  27.7560280  27.3615820  32.1645700  27.1854720
  28.8356160  31.8639660  27.3549980  27.1742630  27.6927190  29.3627320
  27.1050910  26.7517130  29.2016450  27.9362490  27.7828600  29.9349890
  19.3649300  18.2981710  31.6883940  19.1852140  17.4007460  31.9686700
  18.9629380  18.8453580  32.3630890  28.2047800  20.4997570  29.5896250
  28.5812620  19.6269450  29.4769920  28.1067310  20.8356270  28.6986690
  22.3352810  18.8723200  25.0513690  22.4419560  19.7726930  25.3582450
  21.4245170  18.8241170  24.7608340  31.9871920  17.9948010  26.5224590
  32.8081540  17.5044580  26.5650070  32.0206000  18.5845670  27.2756430
  19.9835970  20.7942210  30.2966280  20.6646080  21.0580580  30.9153680
  19.6684020  19.9543080  30.6304290  24.1760540  21.8409570  29.3838870
  24.6838760  22.3390540  30.0243890  24.7073780  21.0644770  29.2078230
  36.2771470  20.0114760  33.0868220  35.5723640  20.3996470  32.5683330
  36.5429390  20.7065050  33.6889150  22.4596640  16.4808130  33.6502290
  22.4615080  16.9980520  32.8448190  21.6300950  16.0038310  33.6272220
  28.8467730  26.5927440  25.1492190  28.2285000  27.0576890  24.5854910
  29.3590980  27.2854920  25.5661700  23.7099490  26.1203310  31.8275790
  23.3768870  26.7472230  32.4696860  23.8866170  26.6465190  31.0477460
  32.2233400  19.9348390  29.2952130  31.5188970  20.2233280  29.8755240
  32.5845560  20.7448500  28.9351690  22.1411970  18.1918090  31.6572740
  22.4828780  19.0360140  31.3626610  21.2027780  18.3401830  31.7738080
  22.9218590  28.0884110  33.6424970  23.5392590  28.7635190  33.3609420
  22.0611710  28.4972090  33.5512470  18.2150930  27.2783970  22.5231820
  17.8378910  27.7671070  21.7916720  18.4724000  27.9509250  23.1538350
  35.2920320  19.3803180  29.6861340  34.3445230  19.4142160  29.8176770
  35.6170310  20.1942130  30.0710700  25.8239860  15.6800360  27.9817330
  26.1314840  15.1247250  27.2652830  24.8940560  15.8144820  27.7990320
  32.6700340  28.1183870  25.3614960  32.5596670  27.1758200  25.4864380
  32.6668590  28.4799510  26.2477720  28.2120620  23.7449190  24.7177450
  27.2849900  23.6786570  24.9465920  28.3645440  24.6829320  24.6032690
  28.1989700  20.0166190  21.7144610  27.2593370  20.1780150  21.7997070
  28.5172960  20.7351870  21.1680600  32.2417910  25.3069490  25.2212700
  31.6230330  24.9689040  24.5739000  32.2242360  24.6629250  25.9291890
  31.6844470  21.4854030  32.6378510  31.2715650  22.3107740  32.8918500
  30.9520420  20.8999070  32.4454870  23.8177260  24.2713930  27.4997180
  23.4134260  23.5591180  27.0043080  23.9040380  23.9267170  28.3885220
  24.2858960  27.9581490  29.6636390  23.9887250  27.3526960  28.9844170
  25.2358780  27.9958800  29.5525750  22.5305880  21.0457140  31.2796220
  23.0820470  21.1552480  30.5049470  23.0449390  21.4194740  31.9951450
  30.4182610  24.5456300  22.2285450  30.8575890  23.7078730  22.0823270
  31.1311030  25.1785700  22.3149590  22.2048610  24.5676500  34.8901560
  22.0656380  25.4399300  35.2588960  21.3229970  24.2249310  34.7449500
  28.5277990  29.4852370  26.1966690  28.9673900  30.2276700  25.7822080
  28.4664880  29.7278940  27.1205650  33.9999750  15.7999110  20.5426490
  33.6872410  15.8925940  21.4425560  34.7612220  16.3780140  20.4923920
  20.5181890  23.1658910  25.0003830  20.3979490  23.8921000  24.3885100
  20.2082780  22.3961820  24.5231740  18.1567260  26.3374050  30.8072470
  18.2347680  26.4722820  29.8628190  18.7708940  25.6289940  31.0000590
  19.4014890  28.0374240  27.2178650  18.9942970  28.1788830  26.3632250
  20.2927900  27.7534400  27.0149860  31.1948170  32.4721490  23.5529700
  31.0349310  32.1824430  24.4511530  31.0294880  31.6961620  23.0174930
  23.6736550  32.2520020  25.3301320  23.4979030  31.3355560  25.1169120
  22.8192290  32.6107310  25.5699120  30.8974300  29.9809050  22.1127700
  30.2039460  29.9786340  21.4529980  31.6397160  29.5568370  21.6821870
  30.4624230  31.6071760  26.1876190  30.9181180  30.8261140  26.5014810
  30.8016750  32.3178580  26.7317370  18.2126780  27.3788220  33.3466930
  18.3757820  26.9093580  32.5286300  18.6779230  26.8711780  34.0115770
  22.9845550  16.5093980  28.3827500  22.5413700  17.2903520  28.0512020
  23.5430540  16.8323870  29.0898440  27.2715360  19.3762500  33.9862820
  26.8094730  19.5845520  34.7982760  26.8693470  18.5621850  33.6833490
  32.2719870  20.5971450  35.1159480  31.4213460  20.2977200  35.4368550
  32.1121660  20.8413460  34.2043300  29.3669580  22.0973200  37.2158270
  29.6922990  21.2636950  36.8760500  30.1549910  22.6201720  37.3636600
  26.1004370  16.1304680  23.2633330  25.4758550  16.1264550  23.9886640
  26.0134490  15.2635640  22.8669300  25.0221450  17.0541310  30.2417100
  25.3193780  17.9604140  30.1609120  25.5707010  16.5660090  29.6276670
  22.7759770  21.6327550  26.1108750  22.5500690  21.4164720  27.0155370
  21.9952300  22.0656010  25.7654720  30.0057530  21.6390920  24.7099400
  29.4066420  22.3626720  24.5263020  30.5537140  21.5767700  23.9275850
  25.2158980  22.5313130  36.7769020  25.1202580  21.5907860  36.6269420
  26.0590960  22.7528200  36.3817090  28.6122400  20.2754460  26.7402680
  29.0051970  20.5926660  25.9271370  28.9739250  19.3966340  26.8547200
  20.3469520  18.9426800  34.9302800  19.9532910  19.7902010  35.1375580
  19.6587920  18.3053170  35.1211440  26.9214570  19.0261770  37.9999540
  26.2312890  18.8333970  38.6345630  27.6646870  19.3096410  38.5323840
  17.6486570  16.8655260  28.9632880  17.3599620  17.4358120  29.6757860
  18.3932330  16.3859710  29.3264110  17.8356800  20.8075380  20.1735600
  17.7531470  21.7506140  20.3150590  17.4839860  20.6650290  19.2947950
  29.1977540  22.8660210  30.8353460  28.4658660  23.3747020  31.1843560
  28.8001880  22.0490190  30.5342240  25.6354930  19.5414410  29.2405950
  25.6390990  19.1004360  28.3910490  26.5306050  19.8631740  29.3477770
  21.4857310  19.4240900  28.2000160  21.1457360  19.9016130  28.9567210
  20.7234630  18.9706020  27.8401260  25.6975080  20.5426490  22.2312710
  25.8187900  20.5012970  23.1798530  25.3123590  21.4050640  22.0759440
  29.6603450  18.3193890  30.2476400  29.6776190  18.7702540  31.0918250
  29.4119030  17.4199530  30.4609840  24.7096580  22.8527630  21.6296010
  24.1413480  22.4045880  21.0031920  25.4185580  23.2120410  21.0961160
  33.0874200  15.7326070  36.0862780  33.4119970  15.0015730  36.6120760
  33.1230710  15.4139710  35.1843770  19.7865760  26.7539650  35.5062740
  19.4020550  26.1133320  36.1045700  20.0977950  27.4575770  36.0757470
  25.9362900  23.6016190  30.9871360  26.3033030  23.1274760  31.7332700
  25.7467960  24.4757760  31.3279700  18.8003390  18.3459880  27.1164830
  18.5150310  17.9815550  27.9543450  18.7382250  17.6140340  26.5027970
  23.7262270  22.6424830  33.3055570  23.4219340  23.5216810  33.5305930
  24.6808730  22.7024620  33.3413010  22.2544060  26.8485820  23.9022420
  21.4806320  26.3083440  23.7421140  22.9838690  26.3292430  23.5640180
  33.0132040  25.8451180  29.6948810  33.7331160  26.3406470  29.3044920
  32.8113860  25.1669070  29.0502680  28.4741980  17.2389140  23.8378200
  27.6606590  16.7402310  23.7623510  28.2803930  18.0787390  23.4214550
  31.1890370  21.6108790  22.1340360  32.0769990  21.9226020  21.9591700
  31.1595460  20.7381040  21.7420940  22.2981460  26.5166200  27.5401230
  22.8160130  25.7134460  27.4858120  21.8465480  26.4545340  28.3818060
  27.1850960  27.7832480  22.8128530  27.5266660  28.5274710  22.3171850
  26.3563670  28.0963600  23.1753360  19.7826000  23.4827570  34.4526930
  19.4240940  24.1481420  35.0400270  19.4880560  22.6511120  34.8239550
  22.9839120  23.9411810  37.3366480  22.6839260  24.0868990  36.4394300
  23.7550360  23.3817100  37.2439870  33.4604640  22.9220630  21.6020220
  33.3768360  23.3534850  20.7516660  34.1798830  23.3818980  22.0347040
  34.4891890  29.7762890  24.3302350  33.8468050  29.1218510  24.6046070
  34.1022550  30.1817980  23.5543020  30.0678370  27.1048320  28.1774040
  30.4202190  26.5076450  27.5175410  29.1840700  26.7792550  28.3482290
  26.1541650  27.8646010  25.5844450  26.8412780  28.4115220  25.9652040
  25.3674070  28.4086740  25.6194060  18.2934050  23.4818830  21.0761530
  19.1628900  23.7643630  21.3597450  17.8024370  24.2954700  20.9610340
  25.4568860  24.8692040  25.1969810  25.9131640  25.6797290  25.4230000
  25.1057070  24.5515180  26.0288300  21.3580640  15.2129690  25.6692330
  21.2295270  15.2047590  26.6177250  20.5342660  15.5512780  25.3183340
  32.8789270  28.6679350  20.8678700  32.6526850  27.9509790  21.4603340
  32.4885470  28.4191790  20.0300450  18.6605300  32.6946210  21.6423160
  19.0202940  33.2935550  20.9880430  18.5197640  33.2406100  22.4158190
  18.3574570  16.9720810  35.1299030  17.6433090  17.1717730  35.7351640
  18.7769610  16.1960380  35.5013830  32.4605520  26.5851290  22.5292860
  32.1727220  27.0463980  23.3170740  33.2557690  26.1249060  22.7977080
  18.6447160  30.9601070  36.1165560  18.7538280  30.0195810  35.9760950
  17.9927720  31.2255820  35.4679290  24.6773920  30.0777410  22.4596830
  24.6684020  30.8107100  21.8441340  23.7572280  29.8308990  22.5523790
  20.2780560  25.2992300  23.2043590  19.6708510  26.0391200  23.2138890
  20.7529910  25.3891660  22.3781790  29.8513350  19.4643120  32.8800480
  30.2194170  18.6438330  33.2080050  28.9911550  19.5245010  33.2956130
  33.2175380  18.4200060  23.6888040  32.5888540  18.5245730  22.9746270
  32.7227300  18.6396840  24.4781920  27.6633520  30.1405650  21.1222020
  27.7645500  29.9369640  20.1924000  26.7635260  29.8863930  21.3269800
  25.1859410  20.6986010  25.1045920  24.4775560  21.1672350  25.5459530
  25.4703890  20.0408020  25.7391110  26.8115340  22.1182710  33.1038450
  27.3100590  22.5928530  33.7690300  26.9538290  21.1946230  33.3108480
  29.2174840  17.4236670  26.5441710  29.0942620  17.4422800  25.5951220
  30.1659400  17.4715610  26.6640110  26.3051630  32.6591970  25.8169690
  26.5593130  32.6213360  24.8949060  25.3564110  32.5325300  25.8097940
  23.3894430  19.0071090  22.4796630  24.2384960  19.4441240  22.4136820
  23.0225700  19.3191350  23.3068690  34.0182200  18.3350670  33.9466840
  33.5155800  19.0756070  34.2860650  34.8338860  18.7234670  33.6303630
  32.3104210  23.5783850  27.3928200  31.3694350  23.5934080  27.5675890
  32.6248280  22.7919810  27.8388500  22.2885850  25.2603450  20.9532160
  23.0549120  25.1484810  21.5157590  22.3660540  24.5641420  20.3008930
  20.9832610  22.6928520  21.6365050  21.0636200  21.7456030  21.7482450
  21.8752360  23.0235400  21.7425710  34.3129790  30.7492700  29.0682460
  34.4377210  31.5723870  29.5406270  35.1795350  30.5383430  28.7206610
  21.7847320  32.8423910  28.7399590  22.5209800  32.2939370  29.0108160
  22.1688240  33.7079920  28.6005580  18.6692800  28.9097480  24.6141100
  17.7432580  29.1518620  24.6046510  19.1349230  29.7371740  24.4925850
  24.8949630  32.0154220  20.5625160  25.6878240  32.3043050  20.1106950
  24.3753980  31.5846390  19.8837640  33.9479800  31.2424350  21.9861900
  33.6621310  30.8289490  21.1716080  33.7499350  32.1712060  21.8662420
  18.5103410  24.5143440  36.8721220  19.0142430  23.9350720  37.4437450
  17.7710830  24.7983670  37.4097590  25.4127030  27.2357630  20.4267510
  25.3077670  26.6209980  21.1528890  25.2451250  26.7123520  19.6430520
  25.5641350  25.9214430  36.4056740  24.7987020  26.4899430  36.3211410
  25.7457310  25.6290640  35.5124970  28.6529760  26.2977660  21.0309500
  28.1039860  26.7446960  21.6752240  29.2749020  25.7926910  21.5547170
  20.5426490  22.6573030  37.7671290  20.5831830  22.3586900  38.6756520
  21.3971990  23.0580640  37.6078810  24.3204880  25.2568580  22.9274800
  24.7421300  25.0908450  23.7706190  24.4455720  24.4468810  22.4329940
  22.4832300  21.2365130  35.7345780  21.9528760  20.7456080  35.1069120
  23.1520370  21.6649330  35.2003710  26.8332520  24.2806190  20.1751900
  27.3538180  23.5655210  19.8093050  27.4800920  24.9192060  20.4752410
  31.8532530  23.0430750  37.5026120  32.4353300  22.2883070  37.4146600
  32.0294300  23.5738190  36.7257600  22.9704600  18.2027500  35.8143070
  22.8761470  17.5848250  35.0893940  22.3901990  18.9293790  35.5872980
  25.7366040  16.7600740  32.8470460  25.2883340  16.7825000  32.0016010
  25.1031240  16.3619760  33.4440760  26.1425590  25.6555070  33.4682900
  26.5613700  26.4987800  33.2959140  25.2234220  25.7927110  33.2389680
  28.4789490  23.3871250  34.8520740  28.5985700  22.7912390  35.5915580
  29.3383490  23.4240940  34.4322040  30.8177390  23.9408440  33.4283250
  30.2912610  24.4651060  32.8248390  31.1608730  24.5735830  34.0592980
  23.2163780  21.3301810  19.8732960  23.0152840  20.4669170  20.2346300
  23.0455830  21.2435170  18.9354560  25.2458260  19.9292600  36.1096560
  25.8357950  19.6208450  36.7974380  24.4278500  19.4572350  36.2656460
  30.0651690  19.5458410  36.3429580  29.3767210  18.8839950  36.2779570
  30.7857710  19.0996680  36.7878040  30.6952090  16.1410040  22.4019840
  30.9754380  15.2977940  22.7579260  29.9217820  16.3733150  22.9158590
  22.0146580  18.4302430  19.8610840  22.3172480  18.4369860  18.9529990
  22.7541170  18.0800290  20.3578500  25.2331510  17.3737050  20.8467040
  24.8853510  16.6961040  20.2669490  25.4344280  16.9126560  21.6610430
  27.3980550  32.3617800  22.4653640  28.2931340  32.7002770  22.4872400
  27.4298180  31.6397210  21.8377920  21.0376710  27.7344850  20.6940640
  21.4751580  28.2774520  21.3498220  21.5224440  26.9091800  20.7036980
  18.2522510  30.5233880  28.1460900  18.5825520  29.6554940  27.9139540
  18.6813510  30.7292400  28.9765860  22.8484430  28.8542890  25.8062870
  22.5479970  28.7307860  26.7066780  22.7421920  27.9951480  25.3978600
  18.7412720  31.3904470  30.8842530  18.3043710  31.5705270  31.7166680
  19.3090400  32.1479090  30.7424250  35.6176350  28.6339290  20.5089550
  34.7869310  28.7015940  20.9796780  35.7948180  29.5243410  20.2056410
  35.0732810  25.3786770  23.0123750  35.8351720  25.9483420  23.1183440
  35.0887180  24.8113970  23.7832060  18.5737150  23.9024700  27.2431410
  17.9185990  23.6336340  26.5991110  19.4115100  23.7929180  26.7933390
  36.0792780  26.2336870  27.8565680  36.4501610  25.4504190  27.4501650
  36.7194710  26.9225970  27.6782980  35.1251980  25.6721140  20.1696270
  35.4000820  26.5800020  20.0415490  34.9362720  25.6083670  21.1058260
  31.5227590  18.6965990  21.4649900  31.9412470  18.5096970  20.6246560
  31.2163650  17.8445040  21.7752830  35.0217320  23.6090130  25.1625700
  34.6460920  22.8418060  24.7306990  34.2920440  23.9912830  25.6500630
  19.6113080  24.2877270  31.7834750  19.9786120  24.2004670  32.6630770
  19.0423900  23.5243820  31.6841610  19.1629080  21.1986360  35.6893170
  18.2685130  21.1653120  36.0286880  19.7026630  21.3973150  36.4544420
  32.8505010  17.9818080  37.5744920  33.7275190  17.9901480  37.9578920
  32.8625850  17.2448920  36.9637270  17.7875230  21.1123630  23.1856740
  16.8839310  21.3753830  23.0108400  18.2715850  21.3834800  22.4056700
  34.2968280  21.8347620  28.4632940  34.8205760  21.3410270  27.8323110
  34.8827700  21.9697980  29.2080510  34.4758000  21.9187490  31.9852490
  33.5260710  21.8851030  32.0997480  34.6571010  22.8287600  31.7502260
  20.3302440  20.1689170  21.0951120  21.0394140  19.7472390  20.6098400
  19.6142380  20.2364400  20.4634470  19.9776600  16.2228500  20.1353770
  20.7004730  16.7637440  20.4534990  20.2501120  15.9491920  19.2595310
  33.7868250  21.0920970  24.4025350  34.2827370  20.8591840  25.1874230
  33.5884320  20.2532810  23.9862990  19.6668790  15.4734690  30.0376390
  20.3144980  14.9232070  29.5971550  20.0870630  15.7277840  30.8592200
  35.2155410  19.7281920  26.9363030  35.1054690  19.5737960  27.8745300
  35.9763000  19.2002860  26.6938440  33.5621130  15.6676050  33.3946030
  34.1993350  16.2810190  33.7605220  33.7096020  15.7036710  32.4495260
  36.1045680  17.5589840  20.1769170  37.0294990  17.4271020  19.9687460
  36.0821470  17.6382660  21.1305620  36.1784170  18.3300500  22.8025880
  35.3835670  18.2645620  23.3318790  36.3827450  19.2651140  22.7911230
  33.1202590  32.3692050  26.7964270  33.7161660  32.0476620  26.1198690
  33.3780740  31.8963870  27.5877540  19.4200790  15.6290360  32.7801710
  19.0715610  16.0854180  33.5459890  19.0888490  14.7347490  32.8624140
  26.9325610  16.8202240  36.3021130  26.8714500  17.4124070  37.0516540
  27.8725990  16.7128200  36.1571390  29.5700170  16.4772300  35.9413420
  30.1840580  16.7951590  35.2794500  30.1149730  15.9920890  36.5609280
  20.0921430  15.1566560  36.0552480  20.6404420  14.9754610  35.2918590
  20.1576740  14.3660670  36.5908790  30.3108210  15.0404440  32.2682710
  29.4368050  15.3739550  32.0655640  30.2018960  14.5677620  33.0934580
  31.2180190  17.2475310  33.6524430  30.8893550  16.4327070  33.2726160
  32.1662490  17.2045120  33.5290120  20.4965420  29.1130590  33.0160720
  19.7699480  28.4935880  32.9486670  20.5574570  29.5071200  32.1458800
  24.1010520  31.3275590  29.8010130  24.6175540  30.7162950  29.2758390
  24.7507900  31.8304370  30.2921140  28.0583030  15.9574280  31.2075620
  27.2754820  16.4319780  31.4872380  27.7645960  15.0529110  31.0988800
  32.6104100  16.6597380  29.2524710  33.0512190  16.6042480  28.4046310
  32.3411690  17.5755390  29.3234890  34.4742670  16.2912620  27.2633530
  34.4131070  15.3473840  27.1164550  35.2534700  16.3992710  27.8086990
  18.7795420  32.4304980  26.2257480  18.6117460  31.7975660  26.9239370
  17.9129930  32.6364380  25.8751670  19.4023440  16.2621760  23.7289340
  20.1602800  16.3750640  23.1553370  18.9400610  17.0990960  23.6832770
  25.9437250  18.3761030  26.7191650  25.1311760  18.0017920  26.3787530
  26.4478890  17.6206110  27.0212840  30.4462230  15.0403480  27.9574720
  31.0491600  15.6123690  28.4323240  29.7055220  15.6042920  27.7348620
  33.5896830  15.4425040  23.2315000  33.7847460  16.3408490  23.4982430
  32.8026700  15.2112120  23.7247950  20.3858120  31.1238210  23.6707620
  19.8605740  31.5046240  22.9669580  20.3102700  31.7488980  24.3917330
  21.7748590  16.7885810  22.2691310  22.3041350  16.0015610  22.1399260
  22.4076910  17.4677000  22.5026840  23.9686430  16.5260950  25.3236700
  23.3389170  15.8248260  25.4906830  23.4291570  17.2865080  25.1069860
  35.1423440  32.6825750  24.9921560  35.3175630  31.9963490  24.3482480
  34.4445010  33.2072800  24.5998230  24.0941990  15.8044930  37.7589190
  23.8126260  16.3078530  36.9950010  24.4761690  15.0066680  37.3931320
  22.9851090  33.0720590  22.5456870  23.7169910  32.7879870  21.9980760
  23.2444760  32.8333870  23.4356250  22.1465880  29.1885320  22.5503200
  21.5174760  29.6570420  23.0989030  22.2613710  28.3434540  22.9849390
  30.6957450  15.2198510  38.3369660  30.5822900  15.5393120  39.2321180
  31.5127190  15.6211020  38.0406940  29.6015600  23.2390980   8.7004400
  29.5209650  22.3245590   8.4296110  29.1880020  23.7358050   7.9944110
  27.7333640  25.0170000  10.5813670  26.9575740  24.5370440  10.8712240
  28.3846570  24.3375650  10.4069830  21.7499470  25.3289810  11.4589430
  20.9184350  25.0738520  11.8585940  22.3580450  25.4000580  12.1947350
  31.7541070  29.4230190   9.3612800  31.2922600  28.6517430   9.6899970
  32.5666620  29.4496260   9.8665250  21.7300730  29.3629900  11.6547450
  22.0328770  28.4727640  11.4757670  22.4744320  29.9200120  11.4269700
  20.1591420  20.2891700   5.2431820  19.2708120  20.6307670   5.1411700
  20.4432610  20.0892020   4.3512650  18.1224430  22.8897350  11.1271520
  18.6940540  22.1219550  11.1275160  18.1225970  23.1886110  10.2178130
  27.9804380  31.7088200   8.9816790  27.3615820  32.1645700   8.4111230
  28.8356160  31.8639660   8.5806490  27.1742630  27.6927190  10.5883830
  27.1050910  26.7517130  10.4272960  27.9362490  27.7828600  11.1606400
  19.3649300  18.2981710  12.9140450  19.1852140  17.4007460  13.1943210
  18.9629380  18.8453580  13.5887400  28.2047800  20.4997570  10.8152760
  28.5812620  19.6269450  10.7026430  28.1067310  20.8356270   9.9243200
  22.3352810  18.8723200   6.2770200  22.4419560  19.7726930   6.5838960
  21.4245170  18.8241170   5.9864850  31.9871920  17.9948010   7.7481100
  32.8081540  17.5044580   7.7906580  32.0206000  18.5845670   8.5012940
  19.9835970  20.7942210  11.5222790  20.6646080  21.0580580  12.1410190
  19.6684020  19.9543080  11.8560800  24.1760540  21.8409570  10.6095380
  24.6838760  22.3390540  11.2500400  24.7073780  21.0644770  10.4334740
  36.2771470  20.0114760  14.3124730  35.5723640  20.3996470  13.7939840
  36.5429390  20.7065050  14.9145660  22.4596640  16.4808130  14.8758800
  22.4615080  16.9980520  14.0704700  21.6300950  16.0038310  14.8528730
  28.8467730  26.5927440   6.3748700  28.2285000  27.0576890   5.8111420
  29.3590980  27.2854920   6.7918210  23.7099490  26.1203310  13.0532300
  23.3768870  26.7472230  13.6953370  23.8866170  26.6465190  12.2733970
  32.2233400  19.9348390  10.5208640  31.5188970  20.2233280  11.1011750
  32.5845560  20.7448500  10.1608200  22.1411970  18.1918090  12.8829250
  22.4828780  19.0360140  12.5883120  21.2027780  18.3401830  12.9994590
  22.9218590  28.0884110  14.8681480  23.5392590  28.7635190  14.5865930
  22.0611710  28.4972090  14.7768980  18.2150930  27.2783970   3.7488330
  17.8378910  27.7671070   3.0173230  18.4724000  27.9509250   4.3794860
  33.8396180  29.5523520  12.7836120  33.1559700  30.2222630  12.7752790
  34.3790470  29.7504170  12.0180980  35.2920320  19.3803180  10.9117850
  34.3445230  19.4142160  11.0433280  35.6170310  20.1942130  11.2967210
  25.8239860  15.6800360   9.2073840  26.1314840  15.1247250   8.4909340
  24.8940560  15.8144820   9.0246830  31.3754920  31.3967650  11.4981300
  31.3882080  30.9929940  10.6303560  30.8230140  32.1714940  11.3942730
  32.6700340  28.1183870   6.5871470  32.5596670  27.1758200   6.7120890
  32.6668590  28.4799510   7.4734230  30.7740360  26.2997490  12.8263910
  31.1909150  26.0857600  11.9917370  31.4980180  26.5570280  13.3972530
  28.2120620  23.7449190   5.9433960  27.2849900  23.6786570   6.1722430
  28.3645440  24.6829320   5.8289200  28.1989700  20.0166190   2.9401120
  27.2593370  20.1780150   3.0253580  28.5172960  20.7351870   2.3937110
  34.7202460  24.6984710  12.9180150  33.8921090  24.7677800  12.4430280
  35.3152940  25.2839020  12.4495980  32.2417910  25.3069490   6.4469210
  31.6230330  24.9689040   5.7995510  32.2242360  24.6629250   7.1548400
  31.6844470  21.4854030  13.8635020  31.2715650  22.3107740  14.1175010
  30.9520420  20.8999070  13.6711380  23.8177260  24.2713930   8.7253690
  23.4134260  23.5591180   8.2299590  23.9040380  23.9267170   9.6141730
  24.2858960  27.9581490  10.8892900  23.9887250  27.3526960  10.2100680
  25.2358780  27.9958800  10.7782260  22.5305880  21.0457140  12.5052730
  23.0820470  21.1552480  11.7305980  23.0449390  21.4194740  13.2207960
  32.3744570  31.5313360  14.5516000  31.8975130  32.3385550  14.3588610
  31.6906360  30.8791690  14.7042210  23.3777390  27.6963180  17.5400700
  22.4805920  27.9203150  17.7874100  23.4030260  27.8198120  16.5912100
  30.4182610  24.5456300   3.4541960  30.8575890  23.7078730   3.3079780
  31.1311030  25.1785700   3.5406100  22.2048610  24.5676500  16.1158070
  22.0656380  25.4399300  16.4845470  21.3229970  24.2249310  15.9706010
  28.5277990  29.4852370   7.4223200  28.9673900  30.2276700   7.0078590
  28.4664880  29.7278940   8.3462160  24.0028960  30.5098200  18.3243220
  23.9744390  30.9141150  17.4571650  23.8393930  29.5808560  18.1614820
  33.9999750  15.7999110   1.7683000  33.6872410  15.8925940   2.6682070
  34.7612220  16.3780140   1.7180430  20.5181890  23.1658910   6.2260340
  20.3979490  23.8921000   5.6141610  20.2082780  22.3961820   5.7488250
  35.9543780  31.2925300  19.6207390  36.4303500  31.7708190  20.2996470
  36.5750940  31.2242790  18.8952890  18.1567260  26.3374050  12.0328980
  18.2347680  26.4722820  11.0884700  18.7708940  25.6289940  12.2257100
  19.4014890  28.0374240   8.4435160  18.9942970  28.1788830   7.5888760
  20.2927900  27.7534400   8.2406370  35.3577030  28.4838150  16.7807400
  35.4840090  28.2450030  15.8624580  35.3998410  27.6522690  17.2529480
  29.2193770  32.1866150  15.3502210  29.7338440  32.0974160  16.1524640
  28.3762850  32.5325850  15.6430120  31.1948170  32.4721490   4.7786210
  31.0349310  32.1824430   5.6768040  31.0294880  31.6961620   4.2431440
  23.6736550  32.2520020   6.5557830  23.4979030  31.3355560   6.3425630
  22.8192290  32.6107310   6.7955630  30.8974300  29.9809050   3.3384210
  30.2039460  29.9786340   2.6786490  31.6397160  29.5568370   2.9078380
  30.4624230  31.6071760   7.4132700  30.9181180  30.8261140   7.7271320
  30.8016750  32.3178580   7.9573880  35.2101040  20.5370610  17.7457140
  34.5945310  21.0450280  17.2172600  34.8897460  19.6368940  17.6883080
  18.2126780  27.3788220  14.5723440  18.3757820  26.9093580  13.7542810
  18.6779230  26.8711780  15.2372280  22.9845550  16.5093980   9.6084010
  22.5413700  17.2903520   9.2768530  23.5430540  16.8323870  10.3154950
  27.2715360  19.3762500  15.2119330  26.8094730  19.5845520  16.0239270
  26.8693470  18.5621850  14.9090000  32.2719870  20.5971450  16.3415990
  31.4213460  20.2977200  16.6625060  32.1121660  20.8413460  15.4299810
  29.3669580  22.0973200  18.4414780  29.6922990  21.2636950  18.1017010
  30.1549910  22.6201720  18.5893110  26.1004370  16.1304680   4.4889840
  25.4758550  16.1264550   5.2143150  26.0134490  15.2635640   4.0925810
  25.0221450  17.0541310  11.4673610  25.3193780  17.9604140  11.3865630
  25.5707010  16.5660090  10.8533180  22.7759770  21.6327550   7.3365260
  22.5500690  21.4164720   8.2411880  21.9952300  22.0656010   6.9911230
  30.0057530  21.6390920   5.9355910  29.4066420  22.3626720   5.7519530
  30.5537140  21.5767700   5.1532360  25.2158980  22.5313130  18.0025530
  25.1202580  21.5907860  17.8525930  26.0590960  22.7528200  17.6073600
  28.6122400  20.2754460   7.9659190  29.0051970  20.5926660   7.1527880
  28.9739250  19.3966340   8.0803710  20.3469520  18.9426800  16.1559310
  19.9532910  19.7902010  16.3632090  19.6587920  18.3053170  16.3467950
  26.9214570  19.0261770  19.2256050  26.2312890  18.8333970  19.8602140
  27.6646870  19.3096410  19.7580350  17.6486570  16.8655260  10.1889390
  17.3599620  17.4358120  10.9014370  18.3932330  16.3859710  10.5520620
  29.1977540  22.8660210  12.0609970  28.4658660  23.3747020  12.4100070
  28.8001880  22.0490190  11.7598750  25.6354930  19.5414410  10.4662460
  25.6390990  19.1004360   9.6167000  26.5306050  19.8631740  10.5734280
  21.4857310  19.4240900   9.4256670  21.1457360  19.9016130  10.1823720
  20.7234630  18.9706020   9.0657770  25.6975080  20.5426490   3.4569220
  25.8187900  20.5012970   4.4055040  25.3123590  21.4050640   3.3015950
  29.6603450  18.3193890  11.4732910  29.6776190  18.7702540  12.3174760
  29.4119030  17.4199530  11.6866350  24.7096580  22.8527630   2.8552520
  24.1413480  22.4045880   2.2288430  25.4185580  23.2120410   2.3217670
  33.0874200  15.7326070  17.3119290  33.4119970  15.0015730  17.8377270
  33.1230710  15.4139710  16.4100280  19.7865760  26.7539650  16.7319250
  19.4020550  26.1133320  17.3302210  20.0977950  27.4575770  17.3013980
  25.9362900  23.6016190  12.2127870  26.3033030  23.1274760  12.9589210
  25.7467960  24.4757760  12.5536210  18.8003390  18.3459880   8.3421340
  18.5150310  17.9815550   9.1799960  18.7382250  17.6140340   7.7284480
  23.7262270  22.6424830  14.5312080  23.4219340  23.5216810  14.7562440
  24.6808730  22.7024620  14.5669520  22.2544060  26.8485820   5.1278930
  21.4806320  26.3083440   4.9677650  22.9838690  26.3292430   4.7896690
  33.0132040  25.8451180  10.9205320  33.7331160  26.3406470  10.5301430
  32.8113860  25.1669070  10.2759190  28.4741980  17.2389140   5.0634710
  27.6606590  16.7402310   4.9880020  28.2803930  18.0787390   4.6471060
  28.3950840  25.9160240  16.8074320  28.3288150  24.9955910  16.5531910
  27.7655980  26.0135680  17.5218960  31.1890370  21.6108790   3.3596870
  32.0769990  21.9226020   3.1848210  31.1595460  20.7381040   2.9677450
  22.2981460  26.5166200   8.7657740  22.8160130  25.7134460   8.7114630
  21.8465480  26.4545340   9.6074570  27.1850960  27.7832480   4.0385040
  27.5266660  28.5274710   3.5428360  26.3563670  28.0963600   4.4009870
  19.7826000  23.4827570  15.6783440  19.4240940  24.1481420  16.2656780
  19.4880560  22.6511120  16.0496060  22.9839120  23.9411810  18.5622990
  22.6839260  24.0868990  17.6650810  23.7550360  23.3817100  18.4696380
  28.3267570  28.7380810  16.5578120  28.3412110  27.8061770  16.3397030
  27.6192670  28.8240570  17.1967890  33.4604640  22.9220630   2.8276730
  33.3768360  23.3534850   1.9773170  34.1798830  23.3818980   3.2603550
  34.5378780  25.3788150  15.9046700  33.8126970  25.9716930  15.7076090
  35.0654240  25.3711690  15.1060070  34.4891890  29.7762890   5.5558860
  33.8468050  29.1218510   5.8302580  34.1022550  30.1817980   4.7799530
  30.0678370  27.1048320   9.4030550  30.4202190  26.5076450   8.7431920
  29.1840700  26.7792550   9.5738800  26.1541650  27.8646010   6.8100960
  26.8412780  28.4115220   7.1908550  25.3674070  28.4086740   6.8450570
  18.2934050  23.4818830   2.3018040  19.1628900  23.7643630   2.5853960
  17.8024370  24.2954700   2.1866850  25.4568860  24.8692040   6.4226320
  25.9131640  25.6797290   6.6486510  25.1057070  24.5515180   7.2544810
  27.7601470  30.3798380  13.6518620  28.4043690  30.5857760  14.3292040
  28.1230910  29.6186780  13.1989470  21.3580640  15.2129690   6.8948840
  21.2295270  15.2047590   7.8433760  20.5342660  15.5512780   6.5439850
  29.0333550  28.3830730  12.3696070  29.6755780  27.6823890  12.4828240
  29.5582900  29.1629170  12.1892960  30.8071170  29.1825630  15.5732130
  31.1427410  29.7692320  16.2510050  29.8871510  29.0518340  15.8029920
  18.6605300  32.6946210   2.8679670  19.0202940  33.2935550   2.2136940
  18.5197640  33.2406100   3.6414700  18.3574570  16.9720810  16.3555540
  17.6433090  17.1717730  16.9608150  18.7769610  16.1960380  16.7270340
  32.4605520  26.5851290   3.7549370  32.1727220  27.0463980   4.5427250
  33.2557690  26.1249060   4.0233590  18.6447160  30.9601070  17.3422070
  18.7538280  30.0195810  17.2017460  17.9927720  31.2255820  16.6935800
  26.6359750  29.2316960  18.7420190  26.3156620  28.5126200  19.2865880
  25.9618110  29.9072030  18.8156250  24.6773920  30.0777410   3.6853340
  24.6684020  30.8107100   3.0697850  23.7572280  29.8308990   3.7780300
  20.2780560  25.2992300   4.4300100  19.6708510  26.0391200   4.4395400
  20.7529910  25.3891660   3.6038300  29.8513350  19.4643120  14.1056990
  30.2194170  18.6438330  14.4336560  28.9911550  19.5245010  14.5212640
  33.2175380  18.4200060   4.9144550  32.5888540  18.5245730   4.2002780
  32.7227300  18.6396840   5.7038430  25.1859410  20.6986010   6.3302430
  24.4775560  21.1672350   6.7716040  25.4703890  20.0408020   6.9647620
  26.8115340  22.1182710  14.3294960  27.3100590  22.5928530  14.9946810
  26.9538290  21.1946230  14.5364990  29.2174840  17.4236670   7.7698220
  29.0942620  17.4422800   6.8207730  30.1659400  17.4715610   7.8896620
  26.3051630  32.6591970   7.0426200  26.5593130  32.6213360   6.1205570
  25.3564110  32.5325300   7.0354450  23.3894430  19.0071090   3.7053140
  24.2384960  19.4441240   3.6393330  23.0225700  19.3191350   4.5325200
  34.0182200  18.3350670  15.1723350  33.5155800  19.0756070  15.5117160
  34.8338860  18.7234670  14.8560140  32.3104210  23.5783850   8.6184710
  31.3694350  23.5934080   8.7932400  32.6248280  22.7919810   9.0645010
  20.9832610  22.6928520   2.8621560  21.0636200  21.7456030   2.9738960
  21.8752360  23.0235400   2.9682220  34.3129790  30.7492700  10.2938970
  34.4377210  31.5723870  10.7662780  35.1795350  30.5383430   9.9463120
  21.7847320  32.8423910   9.9656100  22.5209800  32.2939370  10.2364670
  22.1688240  33.7079920   9.8262090  18.6692800  28.9097480   5.8397610
  17.7432580  29.1518620   5.8303020  19.1349230  29.7371740   5.7182360
  20.7905600  32.0269980  19.1541680  21.5918330  32.3482030  19.5677080
  20.2757420  31.6665560  19.8761590  29.6270230  28.1349850  19.1017090
  29.0208390  28.1581450  18.3612840  29.3224340  27.4032890  19.6384340
  31.0570600  31.8630140  17.7126500  32.0092350  31.7788160  17.6626740
  30.9098820  32.5271850  18.3860290  33.9479800  31.2424350   3.2118410
  33.6621310  30.8289490   2.3972590  33.7499350  32.1712060   3.0918930
  18.5103410  24.5143440  18.0977730  19.0142430  23.9350720  18.6693960
  17.7710830  24.7983670  18.6354100  25.5641350  25.9214430  17.6313250
  24.7987020  26.4899430  17.5467920  25.7457310  25.6290640  16.7381480
  28.6529760  26.2977660   2.2566010  28.1039860  26.7446960   2.9008750
  29.2749020  25.7926910   2.7803680  32.7064700  27.6519760  18.1888270
  33.4474170  27.9895520  17.6855730  31.9437380  27.8211820  17.6358040
  20.5426490  22.6573030  18.9927800  20.5831830  22.3586900  19.9013030
  21.3971990  23.0580640  18.8335320  24.3204880  25.2568580   4.1531310
  24.7421300  25.0908450   4.9962700  24.4455720  24.4468810   3.6586450
  22.4832300  21.2365130  16.9602290  21.9528760  20.7456080  16.3325630
  23.1520370  21.6649330  16.4260220  31.3810360  25.7034590  16.7243480
  31.7951380  25.8579670  17.5733900  30.4461360  25.8289810  16.8869260
  31.8532530  23.0430750  18.7282630  32.4353300  22.2883070  18.6403110
  32.0294300  23.5738190  17.9514110  22.9704600  18.2027500  17.0399580
  22.8761470  17.5848250  16.3150450  22.3901990  18.9293790  16.8129490
  25.7366040  16.7600740  14.0726970  25.2883340  16.7825000  13.2272520
  25.1031240  16.3619760  14.6697270  26.1425590  25.6555070  14.6939410
  26.5613700  26.4987800  14.5215650  25.2234220  25.7927110  14.4646190
  28.4789490  23.3871250  16.0777250  28.5985700  22.7912390  16.8172090
  29.3383490  23.4240940  15.6578550  30.8177390  23.9408440  14.6539760
  30.2912610  24.4651060  14.0504900  31.1608730  24.5735830  15.2849490
  23.9933010  31.9608080  15.8097140  23.4554100  32.6854140  15.4905840
  24.2466970  31.4838420  15.0194480  25.2458260  19.9292600  17.3353070
  25.8357950  19.6208450  18.0230890  24.4278500  19.4572350  17.4912970
  30.0651690  19.5458410  17.5686090  29.3767210  18.8839950  17.5036080
  30.7857710  19.0996680  18.0134550  30.6952090  16.1410040   3.6276350
  30.9754380  15.2977940   3.9835770  29.9217820  16.3733150   4.1415100
  26.8495220  33.1959290  16.0683790  26.7753920  34.0994430  16.3756160
  25.9474060  32.8771190  16.0405860  27.3980550  32.3617800   3.6910150
  28.2931340  32.7002770   3.7128910  27.4298180  31.6397210   3.0634430
  21.0376710  27.7344850   1.9197150  21.4751580  28.2774520   2.5754730
  21.5224440  26.9091800   1.9293490  18.2522510  30.5233880   9.3717410
  18.5825520  29.6554940   9.1396050  18.6813510  30.7292400  10.2022370
  22.8484430  28.8542890   7.0319380  22.5479970  28.7307860   7.9323290
  22.7421920  27.9951480   6.6235110  18.7412720  31.3904470  12.1099040
  18.3043710  31.5705270  12.9423190  19.3090400  32.1479090  11.9680760
  34.3774900  30.8921470  16.3976350  33.7776890  30.9514030  15.6540270
  34.5068800  29.9526450  16.5273200  35.0732810  25.3786770   4.2380260
  35.8351720  25.9483420   4.3439950  35.0887180  24.8113970   5.0088570
  18.5737150  23.9024700   8.4687920  17.9185990  23.6336340   7.8247620
  19.4115100  23.7929180   8.0189900  36.0792780  26.2336870   9.0822190
  36.4501610  25.4504190   8.6758160  36.7194710  26.9225970   8.9039490
  33.0626540  27.6173450  14.4952510  32.2486380  28.0470610  14.7578300
  33.4700740  28.2291860  13.8821560  31.5227590  18.6965990   2.6906410
  31.9412470  18.5096970   1.8503070  31.2163650  17.8445040   3.0009340
  35.0217320  23.6090130   6.3882210  34.6460920  22.8418060   5.9563500
  34.2920440  23.9912830   6.8757140  19.6113080  24.2877270  13.0091260
  19.9786120  24.2004670  13.8887280  19.0423900  23.5243820  12.9098120
  34.4116940  22.7561650  16.0221730  34.1803030  22.5274400  15.1219680
  34.6721490  23.6761200  15.9766620  19.1629080  21.1986360  16.9149680
  18.2685130  21.1653120  17.2543390  19.7026630  21.3973150  17.6800930
  32.8505010  17.9818080  18.8001430  33.7275190  17.9901480  19.1835430
  32.8625850  17.2448920  18.1893780  17.7875230  21.1123630   4.4113250
  16.8839310  21.3753830   4.2364910  18.2715850  21.3834800   3.6313210
  34.2968280  21.8347620   9.6889450  34.8205760  21.3410270   9.0579620
  34.8827700  21.9697980  10.4337020  34.4758000  21.9187490  13.2109000
  33.5260710  21.8851030  13.3253990  34.6571010  22.8287600  12.9758770
  20.3302440  20.1689170   2.3207630  21.0394140  19.7472390   1.8354910
  19.6142380  20.2364400   1.6890980  33.7868250  21.0920970   5.6281860
  34.2827370  20.8591840   6.4130740  33.5884320  20.2532810   5.2119500
  19.6668790  15.4734690  11.2632900  20.3144980  14.9232070  10.8228060
  20.0870630  15.7277840  12.0848710  35.2155410  19.7281920   8.1619540
  35.1054690  19.5737960   9.1001810  35.9763000  19.2002860   7.9194950
  33.5621130  15.6676050  14.6202540  34.1993350  16.2810190  14.9861730
  33.7096020  15.7036710  13.6751770  36.1784170  18.3300500   4.0282390
  35.3835670  18.2645620   4.5575300  36.3827450  19.2651140   4.0167740
  33.1202590  32.3692050   8.0220780  33.7161660  32.0476620   7.3455200
  33.3780740  31.8963870   8.8134050  19.4200790  15.6290360  14.0058220
  19.0715610  16.0854180  14.7716400  19.0888490  14.7347490  14.0880650
  21.0265160  28.8009960  18.1711410  20.9834790  28.4302870  19.0525870
  21.1576170  29.7387530  18.3113230  24.7271190  30.3569550  13.7721130
  24.4862550  30.6244110  12.8851650  25.6673830  30.5275280  13.8271990
  26.9325610  16.8202240  17.5277640  26.8714500  17.4124070  18.2773050
  27.8725990  16.7128200  17.3827900  29.5700170  16.4772300  17.1669930
  30.1840580  16.7951590  16.5051010  30.1149730  15.9920890  17.7865790
  35.9875350  32.3763930  14.5731770  35.4933630  32.7732800  13.8558900
  35.3788640  31.7513140  14.9669050  20.0921430  15.1566560  17.2808990
  20.6404420  14.9754610  16.5175100  20.1576740  14.3660670  17.8165300
  20.8653190  31.7472210  15.2909190  20.2713510  31.6156910  16.0299230
  20.8577030  30.9110350  14.8251290  30.3108210  15.0404440  13.4939220
  29.4368050  15.3739550  13.2912150  30.2018960  14.5677620  14.3191090
  31.2180190  17.2475310  14.8780940  30.8893550  16.4327070  14.4982670
  32.1662490  17.2045120  14.7546630  33.6714800  33.0187350  11.8518510
  33.2117770  33.7703160  11.4776530  33.0427260  32.2993820  11.7933310
  20.4965420  29.1130590  14.2417230  19.7699480  28.4935880  14.1743180
  20.5574570  29.5071200  13.3715310  24.1010520  31.3275590  11.0266640
  24.6175540  30.7162950  10.5014900  24.7507900  31.8304370  11.5177650
  26.8406020  32.2184080  11.8535620  27.1283830  31.9638380  10.9768630
  27.3529240  31.6661440  12.4441190  28.0583030  15.9574280  12.4332130
  27.2754820  16.4319780  12.7128890  27.7645960  15.0529110  12.3245310
  32.6104100  16.6597380  10.4781220  33.0512190  16.6042480   9.6302820
  32.3411690  17.5755390  10.5491400  34.4742670  16.2912620   8.4890040
  34.4131070  15.3473840   8.3421060  35.2534700  16.3992710   9.0343500
  18.7795420  32.4304980   7.4513990  18.6117460  31.7975660   8.1495880
  17.9129930  32.6364380   7.1008180  19.4023440  16.2621760   4.9545850
  20.1602800  16.3750640   4.3809880  18.9400610  17.0990960   4.9089280
  25.9437250  18.3761030   7.9448160  25.1311760  18.0017920   7.6044040
  26.4478890  17.6206110   8.2469350  30.4462230  15.0403480   9.1831230
  31.0491600  15.6123690   9.6579750  29.7055220  15.6042920   8.9605130
  33.5896830  15.4425040   4.4571510  33.7847460  16.3408490   4.7238940
  32.8026700  15.2112120   4.9504460  20.3858120  31.1238210   4.8964130
  19.8605740  31.5046240   4.1926090  20.3102700  31.7488980   5.6173840
  21.7748590  16.7885810   3.4947820  22.3041350  16.0015610   3.3655770
  22.4076910  17.4677000   3.7283350  23.9686430  16.5260950   6.5493210
  23.3389170  15.8248260   6.7163340  23.4291570  17.2865080   6.3326370
  26.9078380  33.1400180  19.2203820  27.8345690  32.9044450  19.2639780
  26.8928810  33.9672180  18.7389850  35.1423440  32.6825750   6.2178070
  35.3175630  31.9963490   5.5738990  34.4445010  33.2072800   5.8254740
  24.0941990  15.8044930  18.9845700  23.8126260  16.3078530  18.2206520
  24.4761690  15.0066680  18.6187830  22.9851090  33.0720590   3.7713380
  23.7169910  32.7879870   3.2237270  23.2444760  32.8333870   4.6612760
  22.1465880  29.1885320   3.7759710  21.5174760  29.6570420   4.3245540
  22.2613710  28.3434540   4.2105900  30.6957450  15.2198510  19.5626170
  30.5822900  15.5393120  20.4577690  31.5127190  15.6211020  19.2663450
  33.4755940  32.3670040  19.0444860  34.2681260  31.8719270  18.8370820
  33.7689090  33.0460180  19.6520470  29.6015600   4.4647490  83.7978360
  29.5209650   3.5502100  83.5270070  29.1880020   4.9614560  83.0918070
  27.7333640   6.2426510  85.6787630  26.9575740   5.7626950  85.9686200
  28.3846570   5.5632160  85.5043790  21.7499470   6.5546320  86.5563390
  20.9184350   6.2995030  86.9559900  22.3580450   6.6257090  87.2921310
  31.7541070  10.6486700  84.4586760  31.2922600   9.8773940  84.7873930
  32.5666620  10.6752770  84.9639210  21.7300730  10.5886410  86.7521410
  22.0328770   9.6984150  86.5731630  22.4744320  11.1456630  86.5243660
  18.1224430   4.1153860  86.2245480  18.6940540   3.3476060  86.2249120
  18.1225970   4.4142620  85.3152090  27.9804380  12.9344710  84.0790750
  27.3615820  13.3902210  83.5085190  28.8356160  13.0896170  83.6780450
  27.1742630   8.9183700  85.6857790  27.1050910   7.9773640  85.5246920
  27.9362490   9.0085110  86.2580360  24.1760540   3.0666080  85.7069340
  24.6838760   3.5647050  86.3474360  24.7073780   2.2901280  85.5308700
  28.8467730   7.8183950  81.4722660  28.2285000   8.2833400  80.9085380
  29.3590980   8.5111430  81.8892170  23.7099490   7.3459820  88.1506260
  23.3768870   7.9728740  88.7927330  23.8866170   7.8721700  87.3707930
  22.9218590   9.3140620  89.9655440  23.5392590   9.9891700  89.6839890
  22.0611710   9.7228600  89.8742940  18.2150930   8.5040480  78.8462290
  17.8378910   8.9927580  78.1147190  18.4724000   9.1765760  79.4768820
  33.8396180  10.7780030  87.8810080  33.1559700  11.4479140  87.8726750
  34.3790470  10.9760680  87.1154940  31.3754920  12.6224160  86.5955260
  31.3882080  12.2186450  85.7277520  30.8230140  13.3971450  86.4916690
  32.6700340   9.3440380  81.6845430  32.5596670   8.4014710  81.8094850
  32.6668590   9.7056020  82.5708190  30.7740360   7.5254000  87.9237870
  31.1909150   7.3114110  87.0891330  31.4980180   7.7826790  88.4946490
  28.2120620   4.9705700  81.0407920  27.2849900   4.9043080  81.2696390
  28.3645440   5.9085830  80.9263160  34.7202460   5.9241220  88.0154110
  33.8921090   5.9934310  87.5404240  35.3152940   6.5095530  87.5469940
  32.2417910   6.5326000  81.5443170  31.6230330   6.1945550  80.8969470
  32.2242360   5.8885760  82.2522360  31.6844470   2.7110540  88.9608980
  31.2715650   3.5364250  89.2148970  30.9520420   2.1255580  88.7685340
  23.8177260   5.4970440  83.8227650  23.4134260   4.7847690  83.3273550
  23.9040380   5.1523680  84.7115690  24.2858960   9.1838000  85.9866860
  23.9887250   8.5783470  85.3074640  25.2358780   9.2215310  85.8756220
  22.5305880   2.2713650  87.6026690  23.0820470   2.3808990  86.8279940
  23.0449390   2.6451250  88.3181920  32.3744570  12.7569870  89.6489960
  31.8975130  13.5642060  89.4562570  31.6906360  12.1048200  89.8016170
  23.3777390   8.9219690  92.6374660  22.4805920   9.1459660  92.8848060
  23.4030260   9.0454630  91.6886060  30.4182610   5.7712810  78.5515920
  30.8575890   4.9335240  78.4053740  31.1311030   6.4042210  78.6380060
  22.2048610   5.7933010  91.2132030  22.0656380   6.6655810  91.5819430
  21.3229970   5.4505820  91.0679970  28.5277990  10.7108880  82.5197160
  28.9673900  11.4533210  82.1052550  28.4664880  10.9535450  83.4436120
  24.0028960  11.7354710  93.4217180  23.9744390  12.1397660  92.5545610
  23.8393930  10.8065070  93.2588780  20.5181890   4.3915420  81.3234300
  20.3979490   5.1177510  80.7115570  20.2082780   3.6218330  80.8462210
  18.1567260   7.5630560  87.1302940  18.2347680   7.6979330  86.1858660
  18.7708940   6.8546450  87.3231060  19.4014890   9.2630750  83.5409120
  18.9942970   9.4045340  82.6862720  20.2927900   8.9790910  83.3380330
  35.3577030   9.7094660  91.8781360  35.4840090   9.4706540  90.9598540
  35.3998410   8.8779200  92.3503440  29.2193770  13.4122660  90.4476170
  29.7338440  13.3230670  91.2498600  28.3762850  13.7582360  90.7404080
  31.1948170  13.6978000  79.8760170  31.0349310  13.4080940  80.7742000
  31.0294880  12.9218130  79.3405400  23.6736550  13.4776530  81.6531790
  23.4979030  12.5612070  81.4399590  22.8192290  13.8363820  81.8929590
  30.8974300  11.2065560  78.4358170  30.2039460  11.2042850  77.7760450
  31.6397160  10.7824880  78.0052340  30.4624230  12.8328270  82.5106660
  30.9181180  12.0517650  82.8245280  30.8016750  13.5435090  83.0547840
  18.2126780   8.6044730  89.6697400  18.3757820   8.1350090  88.8516770
  18.6779230   8.0968290  90.3346240  32.2719870   1.8227960  91.4389950
  31.4213460   1.5233710  91.7599020  32.1121660   2.0669970  90.5273770
  29.3669580   3.3229710  93.5388740  29.6922990   2.4893460  93.1990970
  30.1549910   3.8458230  93.6867070  22.7759770   2.8584060  82.4339220
  22.5500690   2.6421230  83.3385840  21.9952300   3.2912520  82.0885190
  30.0057530   2.8647430  81.0329870  29.4066420   3.5883230  80.8493490
  30.5537140   2.8024210  80.2506320  25.2158980   3.7569640  93.0999490
  25.1202580   2.8164370  92.9499890  26.0590960   3.9784710  92.7047560
  17.8356800   2.0331890  76.4966070  17.7531470   2.9762650  76.6381060
  17.4839860   1.8906800  75.6178420  29.1977540   4.0916720  87.1583930
  28.4658660   4.6003530  87.5074030  28.8001880   3.2746700  86.8572710
  25.6975080   1.7683000  78.5543180  25.8187900   1.7269480  79.5029000
  25.3123590   2.6307150  78.3989910  24.7096580   4.0784140  77.9526480
  24.1413480   3.6302390  77.3262390  25.4185580   4.4376920  77.4191630
  19.7865760   7.9796160  91.8293210  19.4020550   7.3389830  92.4276170
  20.0977950   8.6832280  92.3987940  25.9362900   4.8272700  87.3101830
  26.3033030   4.3531270  88.0563170  25.7467960   5.7014270  87.6510170
  23.7262270   3.8681340  89.6286040  23.4219340   4.7473320  89.8536400
  24.6808730   3.9281130  89.6643480  22.2544060   8.0742330  80.2252890
  21.4806320   7.5339950  80.0651610  22.9838690   7.5548940  79.8870650
  33.0132040   7.0707690  86.0179280  33.7331160   7.5662980  85.6275390
  32.8113860   6.3925580  85.3733150  28.3950840   7.1416750  91.9048280
  28.3288150   6.2212420  91.6505870  27.7655980   7.2392190  92.6192920
  31.1890370   2.8365300  78.4570830  32.0769990   3.1482530  78.2822170
  31.1595460   1.9637550  78.0651410  22.2981460   7.7422710  83.8631700
  22.8160130   6.9390970  83.8088590  21.8465480   7.6801850  84.7048530
  27.1850960   9.0088990  79.1359000  27.5266660   9.7531220  78.6402320
  26.3563670   9.3220110  79.4983830  19.7826000   4.7084080  90.7757400
  19.4240940   5.3737930  91.3630740  19.4880560   3.8767630  91.1470020
  22.9839120   5.1668320  93.6596950  22.6839260   5.3125500  92.7624770
  23.7550360   4.6073610  93.5670340  28.3267570   9.9637320  91.6552080
  28.3412110   9.0318280  91.4370990  27.6192670  10.0497080  92.2941850
  33.4604640   4.1477140  77.9250690  33.3768360   4.5791360  77.0747130
  34.1798830   4.6075490  78.3577510  34.5378780   6.6044660  91.0020660
  33.8126970   7.1973440  90.8050050  35.0654240   6.5968200  90.2034030
  34.4891890  11.0019400  80.6532820  33.8468050  10.3475020  80.9276540
  34.1022550  11.4074490  79.8773490  30.0678370   8.3304830  84.5004510
  30.4202190   7.7332960  83.8405880  29.1840700   8.0049060  84.6712760
  26.1541650   9.0902520  81.9074920  26.8412780   9.6371730  82.2882510
  25.3674070   9.6343250  81.9424530  18.2934050   4.7075340  77.3992000
  19.1628900   4.9900140  77.6827920  17.8024370   5.5211210  77.2840810
  25.4568860   6.0948550  81.5200280  25.9131640   6.9053800  81.7460470
  25.1057070   5.7771690  82.3518770  27.7601470  11.6054890  88.7492580
  28.4043690  11.8114270  89.4266000  28.1230910  10.8443290  88.2963430
  29.0333550   9.6087240  87.4670030  29.6755780   8.9080400  87.5802200
  29.5582900  10.3885680  87.2866920  32.8789270   9.8935860  77.1909170
  32.6526850   9.1766300  77.7833810  32.4885470   9.6448300  76.3530920
  30.8071170  10.4082140  90.6706090  31.1427410  10.9948830  91.3484010
  29.8871510  10.2774850  90.9003880  18.6605300  13.9202720  77.9653630
  19.0202940  14.5192060  77.3110900  18.5197640  14.4662610  78.7388660
  32.4605520   7.8107800  78.8523330  32.1727220   8.2720490  79.6401210
  33.2557690   7.3505570  79.1207550  18.6447160  12.1857580  92.4396030
  18.7538280  11.2452320  92.2991420  17.9927720  12.4512330  91.7909760
  24.6773920  11.3033920  78.7827300  24.6684020  12.0363610  78.1671810
  23.7572280  11.0565500  78.8754260  20.2780560   6.5248810  79.5274060
  19.6708510   7.2647710  79.5369360  20.7529910   6.6148170  78.7012260
  27.6633520  11.3662160  77.4452490  27.7645500  11.1626150  76.5154470
  26.7635260  11.1120440  77.6500270  26.8115340   3.3439220  89.4268920
  27.3100590   3.8185040  90.0920770  26.9538290   2.4202740  89.6338950
  26.3051630  13.8848480  82.1400160  26.5593130  13.8469870  81.2179530
  25.3564110  13.7581810  82.1328410  32.3104210   4.8040360  83.7158670
  31.3694350   4.8190590  83.8906360  32.6248280   4.0176320  84.1618970
  22.2885850   6.4859960  77.2762630  23.0549120   6.3741320  77.8388060
  22.3660540   5.7897930  76.6239400  20.9832610   3.9185030  77.9595520
  21.0636200   2.9712540  78.0712920  21.8752360   4.2491910  78.0656180
  34.3129790  11.9749210  85.3912930  34.4377210  12.7980380  85.8636740
  35.1795350  11.7639940  85.0437080  21.7847320  14.0680420  85.0630060
  22.5209800  13.5195880  85.3338630  22.1688240  14.9336430  84.9236050
  18.6692800  10.1353990  80.9371570  17.7432580  10.3775130  80.9276980
  19.1349230  10.9628250  80.8156320  24.8949630  13.2410730  76.8855630
  25.6878240  13.5299560  76.4337420  24.3753980  12.8102900  76.2068110
  31.0570600  13.0886650  92.8100460  32.0092350  13.0044670  92.7600700
  30.9098820  13.7528360  93.4834250  33.9479800  12.4680860  78.3092370
  33.6621310  12.0546000  77.4946550  33.7499350  13.3968570  78.1892890
  18.5103410   5.7399950  93.1951690  19.0142430   5.1607230  93.7667920
  17.7710830   6.0240180  93.7328060  25.4127030   8.4614140  76.7497980
  25.3077670   7.8466490  77.4759360  25.2451250   7.9380030  75.9660990
  25.5641350   7.1470940  92.7287210  24.7987020   7.7155940  92.6441880
  25.7457310   6.8547150  91.8355440  28.6529760   7.5234170  77.3539970
  28.1039860   7.9703470  77.9982710  29.2749020   7.0183420  77.8777640
  32.7064700   8.8776270  93.2862230  33.4474170   9.2152030  92.7829690
  31.9437380   9.0468330  92.7332000  24.3204880   6.4825090  79.2505270
  24.7421300   6.3164960  80.0936660  24.4455720   5.6725320  78.7560410
  22.4832300   2.4621640  92.0576250  21.9528760   1.9712590  91.4299590
  23.1520370   2.8905840  91.5234180  26.8332520   5.5062700  76.4982370
  27.3538180   4.7911720  76.1323520  27.4800920   6.1448570  76.7982880
  31.3810360   6.9291100  91.8217440  31.7951380   7.0836180  92.6707860
  30.4461360   7.0546320  91.9843220  31.8532530   4.2687260  93.8256590
  32.4353300   3.5139580  93.7377070  32.0294300   4.7994700  93.0488070
  26.1425590   6.8811580  89.7913370  26.5613700   7.7244310  89.6189610
  25.2234220   7.0183620  89.5620150  28.4789490   4.6127760  91.1751210
  28.5985700   4.0168900  91.9146050  29.3383490   4.6497450  90.7552510
  30.8177390   5.1664950  89.7513720  30.2912610   5.6907570  89.1478860
  31.1608730   5.7992340  90.3823450  23.2163780   2.5558320  76.1963430
  23.0152840   1.6925680  76.5576770  23.0455830   2.4691680  75.2585030
  23.9933010  13.1864590  90.9071100  23.4554100  13.9110650  90.5879800
  24.2466970  12.7094930  90.1168440  26.8495220  14.4215800  91.1657750
  26.7753920  15.3250940  91.4730120  25.9474060  14.1027700  91.1379820
  27.3980550  13.5874310  78.7884110  28.2931340  13.9259280  78.8102870
  27.4298180  12.8653720  78.1608390  21.0376710   8.9601360  77.0171110
  21.4751580   9.5031030  77.6728690  21.5224440   8.1348310  77.0267450
  18.2522510  11.7490390  84.4691370  18.5825520  10.8811450  84.2370010
  18.6813510  11.9548910  85.2996330  22.8484430  10.0799400  82.1293340
  22.5479970   9.9564370  83.0297250  22.7421920   9.2207990  81.7209070
  18.7412720  12.6160980  87.2073000  18.3043710  12.7961780  88.0397150
  19.3090400  13.3735600  87.0654720  34.3774900  12.1177980  91.4950310
  33.7776890  12.1770540  90.7514230  34.5068800  11.1782960  91.6247160
  35.6176350   9.8595800  76.8320020  34.7869310   9.9272450  77.3027250
  35.7948180  10.7499920  76.5286880  35.0732810   6.6043280  79.3354220
  35.8351720   7.1739930  79.4413910  35.0887180   6.0370480  80.1062530
  18.5737150   5.1281210  83.5661880  17.9185990   4.8592850  82.9221580
  19.4115100   5.0185690  83.1163860  36.0792780   7.4593380  84.1796150
  36.4501610   6.6760700  83.7732120  36.7194710   8.1482480  84.0013450
  33.0626540   8.8429960  89.5926470  32.2486380   9.2727120  89.8552260
  33.4700740   9.4548370  88.9795520  35.1251980   6.8977650  76.4926740
  35.4000820   7.8056530  76.3645960  34.9362720   6.8340180  77.4288730
  35.0217320   4.8346640  81.4856170  34.6460920   4.0674570  81.0537460
  34.2920440   5.2169340  81.9731100  19.6113080   5.5133780  88.1065220
  19.9786120   5.4261180  88.9861240  19.0423900   4.7500330  88.0072080
  34.4116940   3.9818160  91.1195690  34.1803030   3.7530910  90.2193640
  34.6721490   4.9017710  91.0740580  19.1629080   2.4242870  92.0123640
  18.2685130   2.3909630  92.3517350  19.7026630   2.6229660  92.7774890
  17.7875230   2.3380140  79.5087210  16.8839310   2.6010340  79.3338870
  18.2715850   2.6091310  78.7287170  34.2968280   3.0604130  84.7863410
  34.8205760   2.5666780  84.1553580  34.8827700   3.1954490  85.5310980
  34.4758000   3.1444000  88.3082960  33.5260710   3.1107540  88.4227950
  34.6571010   4.0544110  88.0732730  33.7868250   2.3177480  80.7255820
  34.2827370   2.0848350  81.5104700  33.5884320   1.4789320  80.3093460
  33.1202590  13.5948560  83.1194740  33.7161660  13.2733130  82.4429160
  33.3780740  13.1220380  83.9108010  24.7271190  11.5826060  88.8695090
  24.4862550  11.8500620  87.9825610  25.6673830  11.7531790  88.9245950
  35.9875350  13.6020440  89.6705730  35.4933630  13.9989310  88.9532860
  35.3788640  12.9769650  90.0643010  20.8653190  12.9728720  90.3883150
  20.2713510  12.8413420  91.1273190  20.8577030  12.1366860  89.9225250
  33.6714800  14.2443860  86.9492470  33.2117770  14.9959670  86.5750490
  33.0427260  13.5250330  86.8907270  20.4965420  10.3387100  89.3391190
  19.7699480   9.7192390  89.2717140  20.5574570  10.7327710  88.4689270
  24.1010520  12.5532100  86.1240600  24.6175540  11.9419460  85.5988860
  24.7507900  13.0560880  86.6151610  26.8406020  13.4440590  86.9509580
  27.1283830  13.1894890  86.0742590  27.3529240  12.8917950  87.5415150
  18.7795420  13.6561490  82.5487950  18.6117460  13.0232170  83.2469840
  17.9129930  13.8620890  82.1982140  20.3858120  12.3494720  79.9938090
  19.8605740  12.7302750  79.2900050  20.3102700  12.9745490  80.7147800
  35.1423440  13.9082260  81.3152030  35.3175630  13.2220000  80.6712950
  34.4445010  14.4329310  80.9228700  22.9851090  14.2977100  78.8687340
  23.7169910  14.0136380  78.3211230  23.2444760  14.0590380  79.7586720
  22.1465880  10.4141830  78.8733670  21.5174760  10.8826930  79.4219500
  22.2613710   9.5691050  79.3079860  29.6015600   4.4647490  65.0234870
  29.5209650   3.5502100  64.7526580  29.1880020   4.9614560  64.3174580
  27.7333640   6.2426510  66.9044140  26.9575740   5.7626950  67.1942710
  28.3846570   5.5632160  66.7300300  21.7499470   6.5546320  67.7819900
  20.9184350   6.2995030  68.1816410  22.3580450   6.6257090  68.5177820
  31.7541070  10.6486700  65.6843270  31.2922600   9.8773940  66.0130440
  32.5666620  10.6752770  66.1895720  21.7300730  10.5886410  67.9777920
  22.0328770   9.6984150  67.7988140  22.4744320  11.1456630  67.7500170
  18.1224430   4.1153860  67.4501990  18.6940540   3.3476060  67.4505630
  18.1225970   4.4142620  66.5408600  27.9804380  12.9344710  65.3047260
  27.3615820  13.3902210  64.7341700  28.8356160  13.0896170  64.9036960
  27.1742630   8.9183700  66.9114300  27.1050910   7.9773640  66.7503430
  27.9362490   9.0085110  67.4836870  24.1760540   3.0666080  66.9325850
  24.6838760   3.5647050  67.5730870  24.7073780   2.2901280  66.7565210
  28.8467730   7.8183950  62.6979170  28.2285000   8.2833400  62.1341890
  29.3590980   8.5111430  63.1148680  23.7099490   7.3459820  69.3762770
  23.3768870   7.9728740  70.0183840  23.8866170   7.8721700  68.5964440
  22.9218590   9.3140620  71.1911950  23.5392590   9.9891700  70.9096400
  22.0611710   9.7228600  71.0999450  18.2150930   8.5040480  60.0718800
  17.8378910   8.9927580  59.3403700  18.4724000   9.1765760  60.7025330
  33.8396180  10.7780030  69.1066590  33.1559700  11.4479140  69.0983260
  34.3790470  10.9760680  68.3411450  31.3754920  12.6224160  67.8211770
  31.3882080  12.2186450  66.9534030  30.8230140  13.3971450  67.7173200
  32.6700340   9.3440380  62.9101940  32.5596670   8.4014710  63.0351360
  32.6668590   9.7056020  63.7964700  30.7740360   7.5254000  69.1494380
  31.1909150   7.3114110  68.3147840  31.4980180   7.7826790  69.7203000
  28.2120620   4.9705700  62.2664430  27.2849900   4.9043080  62.4952900
  28.3645440   5.9085830  62.1519670  34.7202460   5.9241220  69.2410620
  33.8921090   5.9934310  68.7660750  35.3152940   6.5095530  68.7726450
  32.2417910   6.5326000  62.7699680  31.6230330   6.1945550  62.1225980
  32.2242360   5.8885760  63.4778870  31.6844470   2.7110540  70.1865490
  31.2715650   3.5364250  70.4405480  30.9520420   2.1255580  69.9941850
  23.8177260   5.4970440  65.0484160  23.4134260   4.7847690  64.5530060
  23.9040380   5.1523680  65.9372200  24.2858960   9.1838000  67.2123370
  23.9887250   8.5783470  66.5331150  25.2358780   9.2215310  67.1012730
  22.5305880   2.2713650  68.8283200  23.0820470   2.3808990  68.0536450
  23.0449390   2.6451250  69.5438430  32.3744570  12.7569870  70.8746470
  31.8975130  13.5642060  70.6819080  31.6906360  12.1048200  71.0272680
  23.3777390   8.9219690  73.8631170  22.4805920   9.1459660  74.1104570
  23.4030260   9.0454630  72.9142570  30.4182610   5.7712810  59.7772430
  30.8575890   4.9335240  59.6310250  31.1311030   6.4042210  59.8636570
  22.2048610   5.7933010  72.4388540  22.0656380   6.6655810  72.8075940
  21.3229970   5.4505820  72.2936480  28.5277990  10.7108880  63.7453670
  28.9673900  11.4533210  63.3309060  28.4664880  10.9535450  64.6692630
  24.0028960  11.7354710  74.6473690  23.9744390  12.1397660  73.7802120
  23.8393930  10.8065070  74.4845290  20.5181890   4.3915420  62.5490810
  20.3979490   5.1177510  61.9372080  20.2082780   3.6218330  62.0718720
  35.9543780  12.5181810  75.9437860  36.4303500  12.9964700  76.6226940
  36.5750940  12.4499300  75.2183360  18.1567260   7.5630560  68.3559450
  18.2347680   7.6979330  67.4115170  18.7708940   6.8546450  68.5487570
  19.4014890   9.2630750  64.7665630  18.9942970   9.4045340  63.9119230
  20.2927900   8.9790910  64.5636840  35.3577030   9.7094660  73.1037870
  35.4840090   9.4706540  72.1855050  35.3998410   8.8779200  73.5759950
  29.2193770  13.4122660  71.6732680  29.7338440  13.3230670  72.4755110
  28.3762850  13.7582360  71.9660590  31.1948170  13.6978000  61.1016680
  31.0349310  13.4080940  61.9998510  31.0294880  12.9218130  60.5661910
  23.6736550  13.4776530  62.8788300  23.4979030  12.5612070  62.6656100
  22.8192290  13.8363820  63.1186100  30.8974300  11.2065560  59.6614680
  30.2039460  11.2042850  59.0016960  31.6397160  10.7824880  59.2308850
  30.4624230  12.8328270  63.7363170  30.9181180  12.0517650  64.0501790
  30.8016750  13.5435090  64.2804350  18.2126780   8.6044730  70.8953910
  18.3757820   8.1350090  70.0773280  18.6779230   8.0968290  71.5602750
  32.2719870   1.8227960  72.6646460  31.4213460   1.5233710  72.9855530
  32.1121660   2.0669970  71.7530280  29.3669580   3.3229710  74.7645250
  29.6922990   2.4893460  74.4247480  30.1549910   3.8458230  74.9123580
  22.7759770   2.8584060  63.6595730  22.5500690   2.6421230  64.5642350
  21.9952300   3.2912520  63.3141700  30.0057530   2.8647430  62.2586380
  29.4066420   3.5883230  62.0750000  30.5537140   2.8024210  61.4762830
  25.2158980   3.7569640  74.3256000  25.1202580   2.8164370  74.1756400
  26.0590960   3.9784710  73.9304070  17.8356800   2.0331890  57.7222580
  17.7531470   2.9762650  57.8637570  17.4839860   1.8906800  56.8434930
  29.1977540   4.0916720  68.3840440  28.4658660   4.6003530  68.7330540
  28.8001880   3.2746700  68.0829220  25.6975080   1.7683000  59.7799690
  25.8187900   1.7269480  60.7285510  25.3123590   2.6307150  59.6246420
  24.7096580   4.0784140  59.1782990  24.1413480   3.6302390  58.5518900
  25.4185580   4.4376920  58.6448140  19.7865760   7.9796160  73.0549720
  19.4020550   7.3389830  73.6532680  20.0977950   8.6832280  73.6244450
  25.9362900   4.8272700  68.5358340  26.3033030   4.3531270  69.2819680
  25.7467960   5.7014270  68.8766680  23.7262270   3.8681340  70.8542550
  23.4219340   4.7473320  71.0792910  24.6808730   3.9281130  70.8899990
  22.2544060   8.0742330  61.4509400  21.4806320   7.5339950  61.2908120
  22.9838690   7.5548940  61.1127160  33.0132040   7.0707690  67.2435790
  33.7331160   7.5662980  66.8531900  32.8113860   6.3925580  66.5989660
  28.3950840   7.1416750  73.1304790  28.3288150   6.2212420  72.8762380
  27.7655980   7.2392190  73.8449430  31.1890370   2.8365300  59.6827340
  32.0769990   3.1482530  59.5078680  31.1595460   1.9637550  59.2907920
  22.2981460   7.7422710  65.0888210  22.8160130   6.9390970  65.0345100
  21.8465480   7.6801850  65.9305040  27.1850960   9.0088990  60.3615510
  27.5266660   9.7531220  59.8658830  26.3563670   9.3220110  60.7240340
  19.7826000   4.7084080  72.0013910  19.4240940   5.3737930  72.5887250
  19.4880560   3.8767630  72.3726530  22.9839120   5.1668320  74.8853460
  22.6839260   5.3125500  73.9881280  23.7550360   4.6073610  74.7926850
  28.3267570   9.9637320  72.8808590  28.3412110   9.0318280  72.6627500
  27.6192670  10.0497080  73.5198360  33.4604640   4.1477140  59.1507200
  33.3768360   4.5791360  58.3003640  34.1798830   4.6075490  59.5834020
  34.5378780   6.6044660  72.2277170  33.8126970   7.1973440  72.0306560
  35.0654240   6.5968200  71.4290540  34.4891890  11.0019400  61.8789330
  33.8468050  10.3475020  62.1533050  34.1022550  11.4074490  61.1030000
  30.0678370   8.3304830  65.7261020  30.4202190   7.7332960  65.0662390
  29.1840700   8.0049060  65.8969270  26.1541650   9.0902520  63.1331430
  26.8412780   9.6371730  63.5139020  25.3674070   9.6343250  63.1681040
  18.2934050   4.7075340  58.6248510  19.1628900   4.9900140  58.9084430
  17.8024370   5.5211210  58.5097320  25.4568860   6.0948550  62.7456790
  25.9131640   6.9053800  62.9716980  25.1057070   5.7771690  63.5775280
  27.7601470  11.6054890  69.9749090  28.4043690  11.8114270  70.6522510
  28.1230910  10.8443290  69.5219940  29.0333550   9.6087240  68.6926540
  29.6755780   8.9080400  68.8058710  29.5582900  10.3885680  68.5123430
  32.8789270   9.8935860  58.4165680  32.6526850   9.1766300  59.0090320
  32.4885470   9.6448300  57.5787430  30.8071170  10.4082140  71.8962600
  31.1427410  10.9948830  72.5740520  29.8871510  10.2774850  72.1260390
  18.6605300  13.9202720  59.1910140  19.0202940  14.5192060  58.5367410
  18.5197640  14.4662610  59.9645170  32.4605520   7.8107800  60.0779840
  32.1727220   8.2720490  60.8657720  33.2557690   7.3505570  60.3464060
  18.6447160  12.1857580  73.6652540  18.7538280  11.2452320  73.5247930
  17.9927720  12.4512330  73.0166270  26.6359750  10.4573470  75.0650660
  26.3156620   9.7382710  75.6096350  25.9618110  11.1328540  75.1386720
  24.6773920  11.3033920  60.0083810  24.6684020  12.0363610  59.3928320
  23.7572280  11.0565500  60.1010770  20.2780560   6.5248810  60.7530570
  19.6708510   7.2647710  60.7625870  20.7529910   6.6148170  59.9268770
  27.6633520  11.3662160  58.6709000  27.7645500  11.1626150  57.7410980
  26.7635260  11.1120440  58.8756780  26.8115340   3.3439220  70.6525430
  27.3100590   3.8185040  71.3177280  26.9538290   2.4202740  70.8595460
  26.3051630  13.8848480  63.3656670  26.5593130  13.8469870  62.4436040
  25.3564110  13.7581810  63.3584920  32.3104210   4.8040360  64.9415180
  31.3694350   4.8190590  65.1162870  32.6248280   4.0176320  65.3875480
  22.2885850   6.4859960  58.5019140  23.0549120   6.3741320  59.0644570
  22.3660540   5.7897930  57.8495910  20.9832610   3.9185030  59.1852030
  21.0636200   2.9712540  59.2969430  21.8752360   4.2491910  59.2912690
  34.3129790  11.9749210  66.6169440  34.4377210  12.7980380  67.0893250
  35.1795350  11.7639940  66.2693590  21.7847320  14.0680420  66.2886570
  22.5209800  13.5195880  66.5595140  22.1688240  14.9336430  66.1492560
  18.6692800  10.1353990  62.1628080  17.7432580  10.3775130  62.1533490
  19.1349230  10.9628250  62.0412830  20.7905600  13.2526490  75.4772150
  21.5918330  13.5738540  75.8907550  20.2757420  12.8922070  76.1992060
  24.8949630  13.2410730  58.1112140  25.6878240  13.5299560  57.6593930
  24.3753980  12.8102900  57.4324620  29.6270230   9.3606360  75.4247560
  29.0208390   9.3837960  74.6843310  29.3224340   8.6289400  75.9614810
  31.0570600  13.0886650  74.0356970  32.0092350  13.0044670  73.9857210
  30.9098820  13.7528360  74.7090760  33.9479800  12.4680860  59.5348880
  33.6621310  12.0546000  58.7203060  33.7499350  13.3968570  59.4149400
  18.5103410   5.7399950  74.4208200  19.0142430   5.1607230  74.9924430
  17.7710830   6.0240180  74.9584570  25.4127030   8.4614140  57.9754490
  25.3077670   7.8466490  58.7015870  25.2451250   7.9380030  57.1917500
  25.5641350   7.1470940  73.9543720  24.7987020   7.7155940  73.8698390
  25.7457310   6.8547150  73.0611950  28.6529760   7.5234170  58.5796480
  28.1039860   7.9703470  59.2239220  29.2749020   7.0183420  59.1034150
  32.7064700   8.8776270  74.5118740  33.4474170   9.2152030  74.0086200
  31.9437380   9.0468330  73.9588510  20.5426490   3.8829540  75.3158270
  20.5831830   3.5843410  76.2243500  21.3971990   4.2837150  75.1565790
  24.3204880   6.4825090  60.4761780  24.7421300   6.3164960  61.3193170
  24.4455720   5.6725320  59.9816920  22.4832300   2.4621640  73.2832760
  21.9528760   1.9712590  72.6556100  23.1520370   2.8905840  72.7490690
  26.8332520   5.5062700  57.7238880  27.3538180   4.7911720  57.3580030
  27.4800920   6.1448570  58.0239390  31.3810360   6.9291100  73.0473950
  31.7951380   7.0836180  73.8964370  30.4461360   7.0546320  73.2099730
  31.8532530   4.2687260  75.0513100  32.4353300   3.5139580  74.9633580
  32.0294300   4.7994700  74.2744580  26.1425590   6.8811580  71.0169880
  26.5613700   7.7244310  70.8446120  25.2234220   7.0183620  70.7876660
  28.4789490   4.6127760  72.4007720  28.5985700   4.0168900  73.1402560
  29.3383490   4.6497450  71.9809020  30.8177390   5.1664950  70.9770230
  30.2912610   5.6907570  70.3735370  31.1608730   5.7992340  71.6079960
  23.2163780   2.5558320  57.4219940  23.0152840   1.6925680  57.7833280
  23.0455830   2.4691680  56.4841540  23.9933010  13.1864590  72.1327610
  23.4554100  13.9110650  71.8136310  24.2466970  12.7094930  71.3424950
  26.8495220  14.4215800  72.3914260  26.7753920  15.3250940  72.6986630
  25.9474060  14.1027700  72.3636330  27.3980550  13.5874310  60.0140620
  28.2931340  13.9259280  60.0359380  27.4298180  12.8653720  59.3864900
  21.0376710   8.9601360  58.2427620  21.4751580   9.5031030  58.8985200
  21.5224440   8.1348310  58.2523960  18.2522510  11.7490390  65.6947880
  18.5825520  10.8811450  65.4626520  18.6813510  11.9548910  66.5252840
  22.8484430  10.0799400  63.3549850  22.5479970   9.9564370  64.2553760
  22.7421920   9.2207990  62.9465580  18.7412720  12.6160980  68.4329510
  18.3043710  12.7961780  69.2653660  19.3090400  13.3735600  68.2911230
  34.3774900  12.1177980  72.7206820  33.7776890  12.1770540  71.9770740
  34.5068800  11.1782960  72.8503670  35.6176350   9.8595800  58.0576530
  34.7869310   9.9272450  58.5283760  35.7948180  10.7499920  57.7543390
  35.0732810   6.6043280  60.5610730  35.8351720   7.1739930  60.6670420
  35.0887180   6.0370480  61.3319040  18.5737150   5.1281210  64.7918390
  17.9185990   4.8592850  64.1478090  19.4115100   5.0185690  64.3420370
  36.0792780   7.4593380  65.4052660  36.4501610   6.6760700  64.9988630
  36.7194710   8.1482480  65.2269960  33.0626540   8.8429960  70.8182980
  32.2486380   9.2727120  71.0808770  33.4700740   9.4548370  70.2052030
  35.1251980   6.8977650  57.7183250  35.4000820   7.8056530  57.5902470
  34.9362720   6.8340180  58.6545240  35.0217320   4.8346640  62.7112680
  34.6460920   4.0674570  62.2793970  34.2920440   5.2169340  63.1987610
  19.6113080   5.5133780  69.3321730  19.9786120   5.4261180  70.2117750
  19.0423900   4.7500330  69.2328590  34.4116940   3.9818160  72.3452200
  34.1803030   3.7530910  71.4450150  34.6721490   4.9017710  72.2997090
  19.1629080   2.4242870  73.2380150  18.2685130   2.3909630  73.5773860
  19.7026630   2.6229660  74.0031400  17.7875230   2.3380140  60.7343720
  16.8839310   2.6010340  60.5595380  18.2715850   2.6091310  59.9543680
  34.2968280   3.0604130  66.0119920  34.8205760   2.5666780  65.3810090
  34.8827700   3.1954490  66.7567490  34.4758000   3.1444000  69.5339470
  33.5260710   3.1107540  69.6484460  34.6571010   4.0544110  69.2989240
  33.7868250   2.3177480  61.9512330  34.2827370   2.0848350  62.7361210
  33.5884320   1.4789320  61.5349970  33.1202590  13.5948560  64.3451250
  33.7161660  13.2733130  63.6685670  33.3780740  13.1220380  65.1364520
  21.0265160  10.0266470  74.4941880  20.9834790   9.6559380  75.3756340
  21.1576170  10.9644040  74.6343700  24.7271190  11.5826060  70.0951600
  24.4862550  11.8500620  69.2082120  25.6673830  11.7531790  70.1502460
  35.9875350  13.6020440  70.8962240  35.4933630  13.9989310  70.1789370
  35.3788640  12.9769650  71.2899520  20.8653190  12.9728720  71.6139660
  20.2713510  12.8413420  72.3529700  20.8577030  12.1366860  71.1481760
  33.6714800  14.2443860  68.1748980  33.2117770  14.9959670  67.8007000
  33.0427260  13.5250330  68.1163780  20.4965420  10.3387100  70.5647700
  19.7699480   9.7192390  70.4973650  20.5574570  10.7327710  69.6945780
  24.1010520  12.5532100  67.3497110  24.6175540  11.9419460  66.8245370
  24.7507900  13.0560880  67.8408120  26.8406020  13.4440590  68.1766090
  27.1283830  13.1894890  67.2999100  27.3529240  12.8917950  68.7671660
  18.7795420  13.6561490  63.7744460  18.6117460  13.0232170  64.4726350
  17.9129930  13.8620890  63.4238650  20.3858120  12.3494720  61.2194600
  19.8605740  12.7302750  60.5156560  20.3102700  12.9745490  61.9404310
  26.9078380  14.3656690  75.5434290  27.8345690  14.1300960  75.5870250
  26.8928810  15.1928690  75.0620320  35.1423440  13.9082260  62.5408540
  35.3175630  13.2220000  61.8969460  34.4445010  14.4329310  62.1485210
  22.9851090  14.2977100  60.0943850  23.7169910  14.0136380  59.5467740
  23.2444760  14.0590380  60.9843230  22.1465880  10.4141830  60.0990180
  21.5174760  10.8826930  60.6476010  22.2613710   9.5691050  60.5336370
  33.4755940  13.5926550  75.3675330  34.2681260  13.0975780  75.1601290
  33.7689090  14.2716690  75.9750940  29.6015600   4.4647490  46.2491380
  29.5209650   3.5502100  45.9783090  29.1880020   4.9614560  45.5431090
  27.7333640   6.2426510  48.1300650  26.9575740   5.7626950  48.4199220
  28.3846570   5.5632160  47.9556810  21.7499470   6.5546320  49.0076410
  20.9184350   6.2995030  49.4072920  22.3580450   6.6257090  49.7434330
  31.7541070  10.6486700  46.9099780  31.2922600   9.8773940  47.2386950
  32.5666620  10.6752770  47.4152230  21.7300730  10.5886410  49.2034430
  22.0328770   9.6984150  49.0244650  22.4744320  11.1456630  48.9756680
  18.1224430   4.1153860  48.6758500  18.6940540   3.3476060  48.6762140
  18.1225970   4.4142620  47.7665110  27.9804380  12.9344710  46.5303770
  27.3615820  13.3902210  45.9598210  28.8356160  13.0896170  46.1293470
  27.1742630   8.9183700  48.1370810  27.1050910   7.9773640  47.9759940
  27.9362490   9.0085110  48.7093380  24.1760540   3.0666080  48.1582360
  24.6838760   3.5647050  48.7987380  24.7073780   2.2901280  47.9821720
  28.8467730   7.8183950  43.9235680  28.2285000   8.2833400  43.3598400
  29.3590980   8.5111430  44.3405190  23.7099490   7.3459820  50.6019280
  23.3768870   7.9728740  51.2440350  23.8866170   7.8721700  49.8220950
  22.9218590   9.3140620  52.4168460  23.5392590   9.9891700  52.1352910
  22.0611710   9.7228600  52.3255960  18.2150930   8.5040480  41.2975310
  17.8378910   8.9927580  40.5660210  18.4724000   9.1765760  41.9281840
  33.8396180  10.7780030  50.3323100  33.1559700  11.4479140  50.3239770
  34.3790470  10.9760680  49.5667960  31.3754920  12.6224160  49.0468280
  31.3882080  12.2186450  48.1790540  30.8230140  13.3971450  48.9429710
  32.6700340   9.3440380  44.1358450  32.5596670   8.4014710  44.2607870
  32.6668590   9.7056020  45.0221210  30.7740360   7.5254000  50.3750890
  31.1909150   7.3114110  49.5404350  31.4980180   7.7826790  50.9459510
  28.2120620   4.9705700  43.4920940  27.2849900   4.9043080  43.7209410
  28.3645440   5.9085830  43.3776180  34.7202460   5.9241220  50.4667130
  33.8921090   5.9934310  49.9917260  35.3152940   6.5095530  49.9982960
  32.2417910   6.5326000  43.9956190  31.6230330   6.1945550  43.3482490
  32.2242360   5.8885760  44.7035380  31.6844470   2.7110540  51.4122000
  31.2715650   3.5364250  51.6661990  30.9520420   2.1255580  51.2198360
  23.8177260   5.4970440  46.2740670  23.4134260   4.7847690  45.7786570
  23.9040380   5.1523680  47.1628710  24.2858960   9.1838000  48.4379880
  23.9887250   8.5783470  47.7587660  25.2358780   9.2215310  48.3269240
  22.5305880   2.2713650  50.0539710  23.0820470   2.3808990  49.2792960
  23.0449390   2.6451250  50.7694940  32.3744570  12.7569870  52.1002980
  31.8975130  13.5642060  51.9075590  31.6906360  12.1048200  52.2529190
  23.3777390   8.9219690  55.0887680  22.4805920   9.1459660  55.3361080
  23.4030260   9.0454630  54.1399080  30.4182610   5.7712810  41.0028940
  30.8575890   4.9335240  40.8566760  31.1311030   6.4042210  41.0893080
  22.2048610   5.7933010  53.6645050  22.0656380   6.6655810  54.0332450
  21.3229970   5.4505820  53.5192990  28.5277990  10.7108880  44.9710180
  28.9673900  11.4533210  44.5565570  28.4664880  10.9535450  45.8949140
  24.0028960  11.7354710  55.8730200  23.9744390  12.1397660  55.0058630
  23.8393930  10.8065070  55.7101800  20.5181890   4.3915420  43.7747320
  20.3979490   5.1177510  43.1628590  20.2082780   3.6218330  43.2975230
  35.9543780  12.5181810  57.1694370  36.4303500  12.9964700  57.8483450
  36.5750940  12.4499300  56.4439870  18.1567260   7.5630560  49.5815960
  18.2347680   7.6979330  48.6371680  18.7708940   6.8546450  49.7744080
  19.4014890   9.2630750  45.9922140  18.9942970   9.4045340  45.1375740
  20.2927900   8.9790910  45.7893350  35.3577030   9.7094660  54.3294380
  35.4840090   9.4706540  53.4111560  35.3998410   8.8779200  54.8016460
  29.2193770  13.4122660  52.8989190  29.7338440  13.3230670  53.7011620
  28.3762850  13.7582360  53.1917100  31.1948170  13.6978000  42.3273190
  31.0349310  13.4080940  43.2255020  31.0294880  12.9218130  41.7918420
  23.6736550  13.4776530  44.1044810  23.4979030  12.5612070  43.8912610
  22.8192290  13.8363820  44.3442610  30.8974300  11.2065560  40.8871190
  30.2039460  11.2042850  40.2273470  31.6397160  10.7824880  40.4565360
  30.4624230  12.8328270  44.9619680  30.9181180  12.0517650  45.2758300
  30.8016750  13.5435090  45.5060860  18.2126780   8.6044730  52.1210420
  18.3757820   8.1350090  51.3029790  18.6779230   8.0968290  52.7859260
  32.2719870   1.8227960  53.8902970  31.4213460   1.5233710  54.2112040
  32.1121660   2.0669970  52.9786790  29.3669580   3.3229710  55.9901760
  29.6922990   2.4893460  55.6503990  30.1549910   3.8458230  56.1380090
  22.7759770   2.8584060  44.8852240  22.5500690   2.6421230  45.7898860
  21.9952300   3.2912520  44.5398210  30.0057530   2.8647430  43.4842890
  29.4066420   3.5883230  43.3006510  30.5537140   2.8024210  42.7019340
  25.2158980   3.7569640  55.5512510  25.1202580   2.8164370  55.4012910
  26.0590960   3.9784710  55.1560580  17.8356800   2.0331890  38.9479090
  17.7531470   2.9762650  39.0894080  17.4839860   1.8906800  38.0691440
  29.1977540   4.0916720  49.6096950  28.4658660   4.6003530  49.9587050
  28.8001880   3.2746700  49.3085730  25.6975080   1.7683000  41.0056200
  25.8187900   1.7269480  41.9542020  25.3123590   2.6307150  40.8502930
  24.7096580   4.0784140  40.4039500  24.1413480   3.6302390  39.7775410
  25.4185580   4.4376920  39.8704650  19.7865760   7.9796160  54.2806230
  19.4020550   7.3389830  54.8789190  20.0977950   8.6832280  54.8500960
  25.9362900   4.8272700  49.7614850  26.3033030   4.3531270  50.5076190
  25.7467960   5.7014270  50.1023190  23.7262270   3.8681340  52.0799060
  23.4219340   4.7473320  52.3049420  24.6808730   3.9281130  52.1156500
  22.2544060   8.0742330  42.6765910  21.4806320   7.5339950  42.5164630
  22.9838690   7.5548940  42.3383670  33.0132040   7.0707690  48.4692300
  33.7331160   7.5662980  48.0788410  32.8113860   6.3925580  47.8246170
  28.3950840   7.1416750  54.3561300  28.3288150   6.2212420  54.1018890
  27.7655980   7.2392190  55.0705940  31.1890370   2.8365300  40.9083850
  32.0769990   3.1482530  40.7335190  31.1595460   1.9637550  40.5164430
  22.2981460   7.7422710  46.3144720  22.8160130   6.9390970  46.2601610
  21.8465480   7.6801850  47.1561550  27.1850960   9.0088990  41.5872020
  27.5266660   9.7531220  41.0915340  26.3563670   9.3220110  41.9496850
  19.7826000   4.7084080  53.2270420  19.4240940   5.3737930  53.8143760
  19.4880560   3.8767630  53.5983040  22.9839120   5.1668320  56.1109970
  22.6839260   5.3125500  55.2137790  23.7550360   4.6073610  56.0183360
  28.3267570   9.9637320  54.1065100  28.3412110   9.0318280  53.8884010
  27.6192670  10.0497080  54.7454870  33.4604640   4.1477140  40.3763710
  33.3768360   4.5791360  39.5260150  34.1798830   4.6075490  40.8090530
  34.5378780   6.6044660  53.4533680  33.8126970   7.1973440  53.2563070
  35.0654240   6.5968200  52.6547050  34.4891890  11.0019400  43.1045840
  33.8468050  10.3475020  43.3789560  34.1022550  11.4074490  42.3286510
  30.0678370   8.3304830  46.9517530  30.4202190   7.7332960  46.2918900
  29.1840700   8.0049060  47.1225780  26.1541650   9.0902520  44.3587940
  26.8412780   9.6371730  44.7395530  25.3674070   9.6343250  44.3937550
  18.2934050   4.7075340  39.8505020  19.1628900   4.9900140  40.1340940
  17.8024370   5.5211210  39.7353830  25.4568860   6.0948550  43.9713300
  25.9131640   6.9053800  44.1973490  25.1057070   5.7771690  44.8031790
  27.7601470  11.6054890  51.2005600  28.4043690  11.8114270  51.8779020
  28.1230910  10.8443290  50.7476450  29.0333550   9.6087240  49.9183050
  29.6755780   8.9080400  50.0315220  29.5582900  10.3885680  49.7379940
  32.8789270   9.8935860  39.6422190  32.6526850   9.1766300  40.2346830
  32.4885470   9.6448300  38.8043940  30.8071170  10.4082140  53.1219110
  31.1427410  10.9948830  53.7997030  29.8871510  10.2774850  53.3516900
  18.6605300  13.9202720  40.4166650  19.0202940  14.5192060  39.7623920
  18.5197640  14.4662610  41.1901680  32.4605520   7.8107800  41.3036350
  32.1727220   8.2720490  42.0914230  33.2557690   7.3505570  41.5720570
  18.6447160  12.1857580  54.8909050  18.7538280  11.2452320  54.7504440
  17.9927720  12.4512330  54.2422780  26.6359750  10.4573470  56.2907170
  26.3156620   9.7382710  56.8352860  25.9618110  11.1328540  56.3643230
  24.6773920  11.3033920  41.2340320  24.6684020  12.0363610  40.6184830
  23.7572280  11.0565500  41.3267280  20.2780560   6.5248810  41.9787080
  19.6708510   7.2647710  41.9882380  20.7529910   6.6148170  41.1525280
  27.6633520  11.3662160  39.8965510  27.7645500  11.1626150  38.9667490
  26.7635260  11.1120440  40.1013290  26.8115340   3.3439220  51.8781940
  27.3100590   3.8185040  52.5433790  26.9538290   2.4202740  52.0851970
  26.3051630  13.8848480  44.5913180  26.5593130  13.8469870  43.6692550
  25.3564110  13.7581810  44.5841430  32.3104210   4.8040360  46.1671690
  31.3694350   4.8190590  46.3419380  32.6248280   4.0176320  46.6131990
  22.2885850   6.4859960  39.7275650  23.0549120   6.3741320  40.2901080
  22.3660540   5.7897930  39.0752420  20.9832610   3.9185030  40.4108540
  21.0636200   2.9712540  40.5225940  21.8752360   4.2491910  40.5169200
  34.3129790  11.9749210  47.8425950  34.4377210  12.7980380  48.3149760
  35.1795350  11.7639940  47.4950100  21.7847320  14.0680420  47.5143080
  22.5209800  13.5195880  47.7851650  22.1688240  14.9336430  47.3749070
  18.6692800  10.1353990  43.3884590  17.7432580  10.3775130  43.3790000
  19.1349230  10.9628250  43.2669340  20.7905600  13.2526490  56.7028660
  21.5918330  13.5738540  57.1164060  20.2757420  12.8922070  57.4248570
  24.8949630  13.2410730  39.3368650  25.6878240  13.5299560  38.8850440
  24.3753980  12.8102900  38.6581130  29.6270230   9.3606360  56.6504070
  29.0208390   9.3837960  55.9099820  29.3224340   8.6289400  57.1871320
  31.0570600  13.0886650  55.2613480  32.0092350  13.0044670  55.2113720
  30.9098820  13.7528360  55.9347270  33.9479800  12.4680860  40.7605390
  33.6621310  12.0546000  39.9459570  33.7499350  13.3968570  40.6405910
  18.5103410   5.7399950  55.6464710  19.0142430   5.1607230  56.2180940
  17.7710830   6.0240180  56.1841080  25.4127030   8.4614140  39.2011000
  25.3077670   7.8466490  39.9272380  25.2451250   7.9380030  38.4174010
  25.5641350   7.1470940  55.1800230  24.7987020   7.7155940  55.0954900
  25.7457310   6.8547150  54.2868460  28.6529760   7.5234170  39.8052990
  28.1039860   7.9703470  40.4495730  29.2749020   7.0183420  40.3290660
  32.7064700   8.8776270  55.7375250  33.4474170   9.2152030  55.2342710
  31.9437380   9.0468330  55.1845020  20.5426490   3.8829540  56.5414780
  20.5831830   3.5843410  57.4500010  21.3971990   4.2837150  56.3822300
  24.3204880   6.4825090  41.7018290  24.7421300   6.3164960  42.5449680
  24.4455720   5.6725320  41.2073430  22.4832300   2.4621640  54.5089270
  21.9528760   1.9712590  53.8812610  23.1520370   2.8905840  53.9747200
  26.8332520   5.5062700  38.9495390  27.3538180   4.7911720  38.5836540
  27.4800920   6.1448570  39.2495900  31.3810360   6.9291100  54.2730460
  31.7951380   7.0836180  55.1220880  30.4461360   7.0546320  54.4356240
  31.8532530   4.2687260  56.2769610  32.4353300   3.5139580  56.1890090
  32.0294300   4.7994700  55.5001090  26.1425590   6.8811580  52.2426390
  26.5613700   7.7244310  52.0702630  25.2234220   7.0183620  52.0133170
  28.4789490   4.6127760  53.6264230  28.5985700   4.0168900  54.3659070
  29.3383490   4.6497450  53.2065530  30.8177390   5.1664950  52.2026740
  30.2912610   5.6907570  51.5991880  31.1608730   5.7992340  52.8336470
  23.2163780   2.5558320  38.6476450  23.0152840   1.6925680  39.0089790
  23.0455830   2.4691680  37.7098050  23.9933010  13.1864590  53.3584120
  23.4554100  13.9110650  53.0392820  24.2466970  12.7094930  52.5681460
  26.8495220  14.4215800  53.6170770  26.7753920  15.3250940  53.9243140
  25.9474060  14.1027700  53.5892840  27.3980550  13.5874310  41.2397130
  28.2931340  13.9259280  41.2615890  27.4298180  12.8653720  40.6121410
  21.0376710   8.9601360  39.4684130  21.4751580   9.5031030  40.1241710
  21.5224440   8.1348310  39.4780470  18.2522510  11.7490390  46.9204390
  18.5825520  10.8811450  46.6883030  18.6813510  11.9548910  47.7509350
  22.8484430  10.0799400  44.5806360  22.5479970   9.9564370  45.4810270
  22.7421920   9.2207990  44.1722090  18.7412720  12.6160980  49.6586020
  18.3043710  12.7961780  50.4910170  19.3090400  13.3735600  49.5167740
  34.3774900  12.1177980  53.9463330  33.7776890  12.1770540  53.2027250
  34.5068800  11.1782960  54.0760180  35.6176350   9.8595800  39.2833040
  34.7869310   9.9272450  39.7540270  35.7948180  10.7499920  38.9799900
  35.0732810   6.6043280  41.7867240  35.8351720   7.1739930  41.8926930
  35.0887180   6.0370480  42.5575550  18.5737150   5.1281210  46.0174900
  17.9185990   4.8592850  45.3734600  19.4115100   5.0185690  45.5676880
  36.0792780   7.4593380  46.6309170  36.4501610   6.6760700  46.2245140
  36.7194710   8.1482480  46.4526470  33.0626540   8.8429960  52.0439490
  32.2486380   9.2727120  52.3065280  33.4700740   9.4548370  51.4308540
  35.1251980   6.8977650  38.9439760  35.4000820   7.8056530  38.8158980
  34.9362720   6.8340180  39.8801750  35.0217320   4.8346640  43.9369190
  34.6460920   4.0674570  43.5050480  34.2920440   5.2169340  44.4244120
  19.6113080   5.5133780  50.5578240  19.9786120   5.4261180  51.4374260
  19.0423900   4.7500330  50.4585100  34.4116940   3.9818160  53.5708710
  34.1803030   3.7530910  52.6706660  34.6721490   4.9017710  53.5253600
  19.1629080   2.4242870  54.4636660  18.2685130   2.3909630  54.8030370
  19.7026630   2.6229660  55.2287910  17.7875230   2.3380140  41.9600230
  16.8839310   2.6010340  41.7851890  18.2715850   2.6091310  41.1800190
  34.2968280   3.0604130  47.2376430  34.8205760   2.5666780  46.6066600
  34.8827700   3.1954490  47.9824000  34.4758000   3.1444000  50.7595980
  33.5260710   3.1107540  50.8740970  34.6571010   4.0544110  50.5245750
  33.7868250   2.3177480  43.1768840  34.2827370   2.0848350  43.9617720
  33.5884320   1.4789320  42.7606480  33.1202590  13.5948560  45.5707760
  33.7161660  13.2733130  44.8942180  33.3780740  13.1220380  46.3621030
  21.0265160  10.0266470  55.7198390  20.9834790   9.6559380  56.6012850
  21.1576170  10.9644040  55.8600210  24.7271190  11.5826060  51.3208110
  24.4862550  11.8500620  50.4338630  25.6673830  11.7531790  51.3758970
  35.9875350  13.6020440  52.1218750  35.4933630  13.9989310  51.4045880
  35.3788640  12.9769650  52.5156030  20.8653190  12.9728720  52.8396170
  20.2713510  12.8413420  53.5786210  20.8577030  12.1366860  52.3738270
  33.6714800  14.2443860  49.4005490  33.2117770  14.9959670  49.0263510
  33.0427260  13.5250330  49.3420290  20.4965420  10.3387100  51.7904210
  19.7699480   9.7192390  51.7230160  20.5574570  10.7327710  50.9202290
  24.1010520  12.5532100  48.5753620  24.6175540  11.9419460  48.0501880
  24.7507900  13.0560880  49.0664630  26.8406020  13.4440590  49.4022600
  27.1283830  13.1894890  48.5255610  27.3529240  12.8917950  49.9928170
  18.7795420  13.6561490  45.0000970  18.6117460  13.0232170  45.6982860
  17.9129930  13.8620890  44.6495160  20.3858120  12.3494720  42.4451110
  19.8605740  12.7302750  41.7413070  20.3102700  12.9745490  43.1660820
  26.9078380  14.3656690  56.7690800  27.8345690  14.1300960  56.8126760
  26.8928810  15.1928690  56.2876830  35.1423440  13.9082260  43.7665050
  35.3175630  13.2220000  43.1225970  34.4445010  14.4329310  43.3741720
  22.9851090  14.2977100  41.3200360  23.7169910  14.0136380  40.7724250
  23.2444760  14.0590380  42.2099740  22.1465880  10.4141830  41.3246690
  21.5174760  10.8826930  41.8732520  22.2613710   9.5691050  41.7592880
  33.4755940  13.5926550  56.5931840  34.2681260  13.0975780  56.3857800
  33.7689090  14.2716690  57.2007450  29.6015600   4.4647490  27.4747890
  29.5209650   3.5502100  27.2039600  29.1880020   4.9614560  26.7687600
  27.7333640   6.2426510  29.3557160  26.9575740   5.7626950  29.6455730
  28.3846570   5.5632160  29.1813320  21.7499470   6.5546320  30.2332920
  20.9184350   6.2995030  30.6329430  22.3580450   6.6257090  30.9690840
  31.7541070  10.6486700  28.1356290  31.2922600   9.8773940  28.4643460
  32.5666620  10.6752770  28.6408740  21.7300730  10.5886410  30.4290940
  22.0328770   9.6984150  30.2501160  22.4744320  11.1456630  30.2013190
  18.1224430   4.1153860  29.9015010  18.6940540   3.3476060  29.9018650
  18.1225970   4.4142620  28.9921620  27.9804380  12.9344710  27.7560280
  27.3615820  13.3902210  27.1854720  28.8356160  13.0896170  27.3549980
  27.1742630   8.9183700  29.3627320  27.1050910   7.9773640  29.2016450
  27.9362490   9.0085110  29.9349890  24.1760540   3.0666080  29.3838870
  24.6838760   3.5647050  30.0243890  24.7073780   2.2901280  29.2078230
  28.8467730   7.8183950  25.1492190  28.2285000   8.2833400  24.5854910
  29.3590980   8.5111430  25.5661700  23.7099490   7.3459820  31.8275790
  23.3768870   7.9728740  32.4696860  23.8866170   7.8721700  31.0477460
  22.9218590   9.3140620  33.6424970  23.5392590   9.9891700  33.3609420
  22.0611710   9.7228600  33.5512470  18.2150930   8.5040480  22.5231820
  17.8378910   8.9927580  21.7916720  18.4724000   9.1765760  23.1538350
  33.8396180  10.7780030  31.5579610  33.1559700  11.4479140  31.5496280
  34.3790470  10.9760680  30.7924470  31.3754920  12.6224160  30.2724790
  31.3882080  12.2186450  29.4047050  30.8230140  13.3971450  30.1686220
  32.6700340   9.3440380  25.3614960  32.5596670   8.4014710  25.4864380
  32.6668590   9.7056020  26.2477720  30.7740360   7.5254000  31.6007400
  31.1909150   7.3114110  30.7660860  31.4980180   7.7826790  32.1716020
  28.2120620   4.9705700  24.7177450  27.2849900   4.9043080  24.9465920
  28.3645440   5.9085830  24.6032690  34.7202460   5.9241220  31.6923640
  33.8921090   5.9934310  31.2173770  35.3152940   6.5095530  31.2239470
  32.2417910   6.5326000  25.2212700  31.6230330   6.1945550  24.5739000
  32.2242360   5.8885760  25.9291890  31.6844470   2.7110540  32.6378510
  31.2715650   3.5364250  32.8918500  30.9520420   2.1255580  32.4454870
  23.8177260   5.4970440  27.4997180  23.4134260   4.7847690  27.0043080
  23.9040380   5.1523680  28.3885220  24.2858960   9.1838000  29.6636390
  23.9887250   8.5783470  28.9844170  25.2358780   9.2215310  29.5525750
  22.5305880   2.2713650  31.2796220  23.0820470   2.3808990  30.5049470
  23.0449390   2.6451250  31.9951450  32.3744570  12.7569870  33.3259490
  31.8975130  13.5642060  33.1332100  31.6906360  12.1048200  33.4785700
  23.3777390   8.9219690  36.3144190  22.4805920   9.1459660  36.5617590
  23.4030260   9.0454630  35.3655590  30.4182610   5.7712810  22.2285450
  30.8575890   4.9335240  22.0823270  31.1311030   6.4042210  22.3149590
  22.2048610   5.7933010  34.8901560  22.0656380   6.6655810  35.2588960
  21.3229970   5.4505820  34.7449500  28.5277990  10.7108880  26.1966690
  28.9673900  11.4533210  25.7822080  28.4664880  10.9535450  27.1205650
  24.0028960  11.7354710  37.0986710  23.9744390  12.1397660  36.2315140
  23.8393930  10.8065070  36.9358310  20.5181890   4.3915420  25.0003830
  20.3979490   5.1177510  24.3885100  20.2082780   3.6218330  24.5231740
  35.9543780  12.5181810  38.3950880  36.4303500  12.9964700  39.0739960
  36.5750940  12.4499300  37.6696380  18.1567260   7.5630560  30.8072470
  18.2347680   7.6979330  29.8628190  18.7708940   6.8546450  31.0000590
  19.4014890   9.2630750  27.2178650  18.9942970   9.4045340  26.3632250
  20.2927900   8.9790910  27.0149860  35.3577030   9.7094660  35.5550890
  35.4840090   9.4706540  34.6368070  35.3998410   8.8779200  36.0272970
  29.2193770  13.4122660  34.1245700  29.7338440  13.3230670  34.9268130
  28.3762850  13.7582360  34.4173610  31.1948170  13.6978000  23.5529700
  31.0349310  13.4080940  24.4511530  31.0294880  12.9218130  23.0174930
  23.6736550  13.4776530  25.3301320  23.4979030  12.5612070  25.1169120
  22.8192290  13.8363820  25.5699120  30.8974300  11.2065560  22.1127700
  30.2039460  11.2042850  21.4529980  31.6397160  10.7824880  21.6821870
  30.4624230  12.8328270  26.1876190  30.9181180  12.0517650  26.5014810
  30.8016750  13.5435090  26.7317370  18.2126780   8.6044730  33.3466930
  18.3757820   8.1350090  32.5286300  18.6779230   8.0968290  34.0115770
  32.2719870   1.8227960  35.1159480  31.4213460   1.5233710  35.4368550
  32.1121660   2.0669970  34.2043300  29.3669580   3.3229710  37.2158270
  29.6922990   2.4893460  36.8760500  30.1549910   3.8458230  37.3636600
  22.7759770   2.8584060  26.1108750  22.5500690   2.6421230  27.0155370
  21.9952300   3.2912520  25.7654720  30.0057530   2.8647430  24.7099400
  29.4066420   3.5883230  24.5263020  30.5537140   2.8024210  23.9275850
  25.2158980   3.7569640  36.7769020  25.1202580   2.8164370  36.6269420
  26.0590960   3.9784710  36.3817090  17.8356800   2.0331890  20.1735600
  17.7531470   2.9762650  20.3150590  17.4839860   1.8906800  19.2947950
  29.1977540   4.0916720  30.8353460  28.4658660   4.6003530  31.1843560
  28.8001880   3.2746700  30.5342240  25.6975080   1.7683000  22.2312710
  25.8187900   1.7269480  23.1798530  25.3123590   2.6307150  22.0759440
  24.7096580   4.0784140  21.6296010  24.1413480   3.6302390  21.0031920
  25.4185580   4.4376920  21.0961160  19.7865760   7.9796160  35.5062740
  19.4020550   7.3389830  36.1045700  20.0977950   8.6832280  36.0757470
  25.9362900   4.8272700  30.9871360  26.3033030   4.3531270  31.7332700
  25.7467960   5.7014270  31.3279700  23.7262270   3.8681340  33.3055570
  23.4219340   4.7473320  33.5305930  24.6808730   3.9281130  33.3413010
  22.2544060   8.0742330  23.9022420  21.4806320   7.5339950  23.7421140
  22.9838690   7.5548940  23.5640180  33.0132040   7.0707690  29.6948810
  33.7331160   7.5662980  29.3044920  32.8113860   6.3925580  29.0502680
  28.3950840   7.1416750  35.5817810  28.3288150   6.2212420  35.3275400
  27.7655980   7.2392190  36.2962450  31.1890370   2.8365300  22.1340360
  32.0769990   3.1482530  21.9591700  31.1595460   1.9637550  21.7420940
  22.2981460   7.7422710  27.5401230  22.8160130   6.9390970  27.4858120
  21.8465480   7.6801850  28.3818060  27.1850960   9.0088990  22.8128530
  27.5266660   9.7531220  22.3171850  26.3563670   9.3220110  23.1753360
  19.7826000   4.7084080  34.4526930  19.4240940   5.3737930  35.0400270
  19.4880560   3.8767630  34.8239550  22.9839120   5.1668320  37.3366480
  22.6839260   5.3125500  36.4394300  23.7550360   4.6073610  37.2439870
  28.3267570   9.9637320  35.3321610  28.3412110   9.0318280  35.1140520
  27.6192670  10.0497080  35.9711380  33.4604640   4.1477140  21.6020220
  33.3768360   4.5791360  20.7516660  34.1798830   4.6075490  22.0347040
  34.5378780   6.6044660  34.6790190  33.8126970   7.1973440  34.4819580
  35.0654240   6.5968200  33.8803560  34.4891890  11.0019400  24.3302350
  33.8468050  10.3475020  24.6046070  34.1022550  11.4074490  23.5543020
  30.0678370   8.3304830  28.1774040  30.4202190   7.7332960  27.5175410
  29.1840700   8.0049060  28.3482290  26.1541650   9.0902520  25.5844450
  26.8412780   9.6371730  25.9652040  25.3674070   9.6343250  25.6194060
  18.2934050   4.7075340  21.0761530  19.1628900   4.9900140  21.3597450
  17.8024370   5.5211210  20.9610340  25.4568860   6.0948550  25.1969810
  25.9131640   6.9053800  25.4230000  25.1057070   5.7771690  26.0288300
  27.7601470  11.6054890  32.4262110  28.4043690  11.8114270  33.1035530
  28.1230910  10.8443290  31.9732960  29.0333550   9.6087240  31.1439560
  29.6755780   8.9080400  31.2571730  29.5582900  10.3885680  30.9636450
  32.8789270   9.8935860  20.8678700  32.6526850   9.1766300  21.4603340
  32.4885470   9.6448300  20.0300450  30.8071170  10.4082140  34.3475620
  31.1427410  10.9948830  35.0253540  29.8871510  10.2774850  34.5773410
  18.6605300  13.9202720  21.6423160  19.0202940  14.5192060  20.9880430
  18.5197640  14.4662610  22.4158190  32.4605520   7.8107800  22.5292860
  32.1727220   8.2720490  23.3170740  33.2557690   7.3505570  22.7977080
  18.6447160  12.1857580  36.1165560  18.7538280  11.2452320  35.9760950
  17.9927720  12.4512330  35.4679290  26.6359750  10.4573470  37.5163680
  26.3156620   9.7382710  38.0609370  25.9618110  11.1328540  37.5899740
  24.6773920  11.3033920  22.4596830  24.6684020  12.0363610  21.8441340
  23.7572280  11.0565500  22.5523790  20.2780560   6.5248810  23.2043590
  19.6708510   7.2647710  23.2138890  20.7529910   6.6148170  22.3781790
  27.6633520  11.3662160  21.1222020  27.7645500  11.1626150  20.1924000
  26.7635260  11.1120440  21.3269800  26.8115340   3.3439220  33.1038450
  27.3100590   3.8185040  33.7690300  26.9538290   2.4202740  33.3108480
  26.3051630  13.8848480  25.8169690  26.5593130  13.8469870  24.8949060
  25.3564110  13.7581810  25.8097940  32.3104210   4.8040360  27.3928200
  31.3694350   4.8190590  27.5675890  32.6248280   4.0176320  27.8388500
  22.2885850   6.4859960  20.9532160  23.0549120   6.3741320  21.5157590
  22.3660540   5.7897930  20.3008930  20.9832610   3.9185030  21.6365050
  21.0636200   2.9712540  21.7482450  21.8752360   4.2491910  21.7425710
  34.3129790  11.9749210  29.0682460  34.4377210  12.7980380  29.5406270
  35.1795350  11.7639940  28.7206610  21.7847320  14.0680420  28.7399590
  22.5209800  13.5195880  29.0108160  22.1688240  14.9336430  28.6005580
  18.6692800  10.1353990  24.6141100  17.7432580  10.3775130  24.6046510
  19.1349230  10.9628250  24.4925850  20.7905600  13.2526490  37.9285170
  21.5918330  13.5738540  38.3420570  20.2757420  12.8922070  38.6505080
  24.8949630  13.2410730  20.5625160  25.6878240  13.5299560  20.1106950
  24.3753980  12.8102900  19.8837640  29.6270230   9.3606360  37.8760580
  29.0208390   9.3837960  37.1356330  29.3224340   8.6289400  38.4127830
  31.0570600  13.0886650  36.4869990  32.0092350  13.0044670  36.4370230
  30.9098820  13.7528360  37.1603780  33.9479800  12.4680860  21.9861900
  33.6621310  12.0546000  21.1716080  33.7499350  13.3968570  21.8662420
  18.5103410   5.7399950  36.8721220  19.0142430   5.1607230  37.4437450
  17.7710830   6.0240180  37.4097590  25.4127030   8.4614140  20.4267510
  25.3077670   7.8466490  21.1528890  25.2451250   7.9380030  19.6430520
  25.5641350   7.1470940  36.4056740  24.7987020   7.7155940  36.3211410
  25.7457310   6.8547150  35.5124970  28.6529760   7.5234170  21.0309500
  28.1039860   7.9703470  21.6752240  29.2749020   7.0183420  21.5547170
  32.7064700   8.8776270  36.9631760  33.4474170   9.2152030  36.4599220
  31.9437380   9.0468330  36.4101530  20.5426490   3.8829540  37.7671290
  20.5831830   3.5843410  38.6756520  21.3971990   4.2837150  37.6078810
  24.3204880   6.4825090  22.9274800  24.7421300   6.3164960  23.7706190
  24.4455720   5.6725320  22.4329940  22.4832300   2.4621640  35.7345780
  21.9528760   1.9712590  35.1069120  23.1520370   2.8905840  35.2003710
  26.8332520   5.5062700  20.1751900  27.3538180   4.7911720  19.8093050
  27.4800920   6.1448570  20.4752410  31.3810360   6.9291100  35.4986970
  31.7951380   7.0836180  36.3477390  30.4461360   7.0546320  35.6612750
  31.8532530   4.2687260  37.5026120  32.4353300   3.5139580  37.4146600
  32.0294300   4.7994700  36.7257600  26.1425590   6.8811580  33.4682900
  26.5613700   7.7244310  33.2959140  25.2234220   7.0183620  33.2389680
  28.4789490   4.6127760  34.8520740  28.5985700   4.0168900  35.5915580
  29.3383490   4.6497450  34.4322040  30.8177390   5.1664950  33.4283250
  30.2912610   5.6907570  32.8248390  31.1608730   5.7992340  34.0592980
  23.2163780   2.5558320  19.8732960  23.0152840   1.6925680  20.2346300
  23.0455830   2.4691680  18.9354560  23.9933010  13.1864590  34.5840630
  23.4554100  13.9110650  34.2649330  24.2466970  12.7094930  33.7937970
  26.8495220  14.4215800  34.8427280  26.7753920  15.3250940  35.1499650
  25.9474060  14.1027700  34.8149350  27.3980550  13.5874310  22.4653640
  28.2931340  13.9259280  22.4872400  27.4298180  12.8653720  21.8377920
  21.0376710   8.9601360  20.6940640  21.4751580   9.5031030  21.3498220
  21.5224440   8.1348310  20.7036980  18.2522510  11.7490390  28.1460900
  18.5825520  10.8811450  27.9139540  18.6813510  11.9548910  28.9765860
  22.8484430  10.0799400  25.8062870  22.5479970   9.9564370  26.7066780
  22.7421920   9.2207990  25.3978600  18.7412720  12.6160980  30.8842530
  18.3043710  12.7961780  31.7166680  19.3090400  13.3735600  30.7424250
  34.3774900  12.1177980  35.1719840  33.7776890  12.1770540  34.4283760
  34.5068800  11.1782960  35.3016690  35.6176350   9.8595800  20.5089550
  34.7869310   9.9272450  20.9796780  35.7948180  10.7499920  20.2056410
  35.0732810   6.6043280  23.0123750  35.8351720   7.1739930  23.1183440
  35.0887180   6.0370480  23.7832060  18.5737150   5.1281210  27.2431410
  17.9185990   4.8592850  26.5991110  19.4115100   5.0185690  26.7933390
  36.0792780   7.4593380  27.8565680  36.4501610   6.6760700  27.4501650
  36.7194710   8.1482480  27.6782980  33.0626540   8.8429960  33.2696000
  32.2486380   9.2727120  33.5321790  33.4700740   9.4548370  32.6565050
  35.1251980   6.8977650  20.1696270  35.4000820   7.8056530  20.0415490
  34.9362720   6.8340180  21.1058260  35.0217320   4.8346640  25.1625700
  34.6460920   4.0674570  24.7306990  34.2920440   5.2169340  25.6500630
  19.6113080   5.5133780  31.7834750  19.9786120   5.4261180  32.6630770
  19.0423900   4.7500330  31.6841610  34.4116940   3.9818160  34.7965220
  34.1803030   3.7530910  33.8963170  34.6721490   4.9017710  34.7510110
  19.1629080   2.4242870  35.6893170  18.2685130   2.3909630  36.0286880
  19.7026630   2.6229660  36.4544420  17.7875230   2.3380140  23.1856740
  16.8839310   2.6010340  23.0108400  18.2715850   2.6091310  22.4056700
  34.2968280   3.0604130  28.4632940  34.8205760   2.5666780  27.8323110
  34.8827700   3.1954490  29.2080510  34.4758000   3.1444000  31.9852490
  33.5260710   3.1107540  32.0997480  34.6571010   4.0544110  31.7502260
  33.7868250   2.3177480  24.4025350  34.2827370   2.0848350  25.1874230
  33.5884320   1.4789320  23.9862990  33.1202590  13.5948560  26.7964270
  33.7161660  13.2733130  26.1198690  33.3780740  13.1220380  27.5877540
  21.0265160  10.0266470  36.9454900  20.9834790   9.6559380  37.8269360
  21.1576170  10.9644040  37.0856720  24.7271190  11.5826060  32.5464620
  24.4862550  11.8500620  31.6595140  25.6673830  11.7531790  32.6015480
  35.9875350  13.6020440  33.3475260  35.4933630  13.9989310  32.6302390
  35.3788640  12.9769650  33.7412540  20.8653190  12.9728720  34.0652680
  20.2713510  12.8413420  34.8042720  20.8577030  12.1366860  33.5994780
  33.6714800  14.2443860  30.6262000  33.2117770  14.9959670  30.2520020
  33.0427260  13.5250330  30.5676800  20.4965420  10.3387100  33.0160720
  19.7699480   9.7192390  32.9486670  20.5574570  10.7327710  32.1458800
  24.1010520  12.5532100  29.8010130  24.6175540  11.9419460  29.2758390
  24.7507900  13.0560880  30.2921140  26.8406020  13.4440590  30.6279110
  27.1283830  13.1894890  29.7512120  27.3529240  12.8917950  31.2184680
  18.7795420  13.6561490  26.2257480  18.6117460  13.0232170  26.9239370
  17.9129930  13.8620890  25.8751670  20.3858120  12.3494720  23.6707620
  19.8605740  12.7302750  22.9669580  20.3102700  12.9745490  24.3917330
  26.9078380  14.3656690  37.9947310  27.8345690  14.1300960  38.0383270
  26.8928810  15.1928690  37.5133340  35.1423440  13.9082260  24.9921560
  35.3175630  13.2220000  24.3482480  34.4445010  14.4329310  24.5998230
  22.9851090  14.2977100  22.5456870  23.7169910  14.0136380  21.9980760
  23.2444760  14.0590380  23.4356250  22.1465880  10.4141830  22.5503200
  21.5174760  10.8826930  23.0989030  22.2613710   9.5691050  22.9849390
  33.4755940  13.5926550  37.8188350  34.2681260  13.0975780  37.6114310
  33.7689090  14.2716690  38.4263960  29.6015600   4.4647490   8.7004400
  29.5209650   3.5502100   8.4296110  29.1880020   4.9614560   7.9944110
  27.7333640   6.2426510  10.5813670  26.9575740   5.7626950  10.8712240
  28.3846570   5.5632160  10.4069830  21.7499470   6.5546320  11.4589430
  20.9184350   6.2995030  11.8585940  22.3580450   6.6257090  12.1947350
  31.7541070  10.6486700   9.3612800  31.2922600   9.8773940   9.6899970
  32.5666620  10.6752770   9.8665250  21.7300730  10.5886410  11.6547450
  22.0328770   9.6984150  11.4757670  22.4744320  11.1456630  11.4269700
  18.1224430   4.1153860  11.1271520  18.6940540   3.3476060  11.1275160
  18.1225970   4.4142620  10.2178130  27.9804380  12.9344710   8.9816790
  27.3615820  13.3902210   8.4111230  28.8356160  13.0896170   8.5806490
  27.1742630   8.9183700  10.5883830  27.1050910   7.9773640  10.4272960
  27.9362490   9.0085110  11.1606400  24.1760540   3.0666080  10.6095380
  24.6838760   3.5647050  11.2500400  24.7073780   2.2901280  10.4334740
  28.8467730   7.8183950   6.3748700  28.2285000   8.2833400   5.8111420
  29.3590980   8.5111430   6.7918210  23.7099490   7.3459820  13.0532300
  23.3768870   7.9728740  13.6953370  23.8866170   7.8721700  12.2733970
  22.9218590   9.3140620  14.8681480  23.5392590   9.9891700  14.5865930
  22.0611710   9.7228600  14.7768980  18.2150930   8.5040480   3.7488330
  17.8378910   8.9927580   3.0173230  18.4724000   9.1765760   4.3794860
  33.8396180  10.7780030  12.7836120  33.1559700  11.4479140  12.7752790
  34.3790470  10.9760680  12.0180980  31.3754920  12.6224160  11.4981300
  31.3882080  12.2186450  10.6303560  30.8230140  13.3971450  11.3942730
  32.6700340   9.3440380   6.5871470  32.5596670   8.4014710   6.7120890
  32.6668590   9.7056020   7.4734230  30.7740360   7.5254000  12.8263910
  31.1909150   7.3114110  11.9917370  31.4980180   7.7826790  13.3972530
  28.2120620   4.9705700   5.9433960  27.2849900   4.9043080   6.1722430
  28.3645440   5.9085830   5.8289200  34.7202460   5.9241220  12.9180150
  33.8921090   5.9934310  12.4430280  35.3152940   6.5095530  12.4495980
  32.2417910   6.5326000   6.4469210  31.6230330   6.1945550   5.7995510
  32.2242360   5.8885760   7.1548400  31.6844470   2.7110540  13.8635020
  31.2715650   3.5364250  14.1175010  30.9520420   2.1255580  13.6711380
  23.8177260   5.4970440   8.7253690  23.4134260   4.7847690   8.2299590
  23.9040380   5.1523680   9.6141730  24.2858960   9.1838000  10.8892900
  23.9887250   8.5783470  10.2100680  25.2358780   9.2215310  10.7782260
  22.5305880   2.2713650  12.5052730  23.0820470   2.3808990  11.7305980
  23.0449390   2.6451250  13.2207960  32.3744570  12.7569870  14.5516000
  31.8975130  13.5642060  14.3588610  31.6906360  12.1048200  14.7042210
  23.3777390   8.9219690  17.5400700  22.4805920   9.1459660  17.7874100
  23.4030260   9.0454630  16.5912100  30.4182610   5.7712810   3.4541960
  30.8575890   4.9335240   3.3079780  31.1311030   6.4042210   3.5406100
  22.2048610   5.7933010  16.1158070  22.0656380   6.6655810  16.4845470
  21.3229970   5.4505820  15.9706010  28.5277990  10.7108880   7.4223200
  28.9673900  11.4533210   7.0078590  28.4664880  10.9535450   8.3462160
  24.0028960  11.7354710  18.3243220  23.9744390  12.1397660  17.4571650
  23.8393930  10.8065070  18.1614820  20.5181890   4.3915420   6.2260340
  20.3979490   5.1177510   5.6141610  20.2082780   3.6218330   5.7488250
  35.9543780  12.5181810  19.6207390  36.4303500  12.9964700  20.2996470
  36.5750940  12.4499300  18.8952890  18.1567260   7.5630560  12.0328980
  18.2347680   7.6979330  11.0884700  18.7708940   6.8546450  12.2257100
  19.4014890   9.2630750   8.4435160  18.9942970   9.4045340   7.5888760
  20.2927900   8.9790910   8.2406370  35.3577030   9.7094660  16.7807400
  35.4840090   9.4706540  15.8624580  35.3998410   8.8779200  17.2529480
  29.2193770  13.4122660  15.3502210  29.7338440  13.3230670  16.1524640
  28.3762850  13.7582360  15.6430120  31.1948170  13.6978000   4.7786210
  31.0349310  13.4080940   5.6768040  31.0294880  12.9218130   4.2431440
  23.6736550  13.4776530   6.5557830  23.4979030  12.5612070   6.3425630
  22.8192290  13.8363820   6.7955630  30.8974300  11.2065560   3.3384210
  30.2039460  11.2042850   2.6786490  31.6397160  10.7824880   2.9078380
  30.4624230  12.8328270   7.4132700  30.9181180  12.0517650   7.7271320
  30.8016750  13.5435090   7.9573880  18.2126780   8.6044730  14.5723440
  18.3757820   8.1350090  13.7542810  18.6779230   8.0968290  15.2372280
  32.2719870   1.8227960  16.3415990  31.4213460   1.5233710  16.6625060
  32.1121660   2.0669970  15.4299810  29.3669580   3.3229710  18.4414780
  29.6922990   2.4893460  18.1017010  30.1549910   3.8458230  18.5893110
  22.7759770   2.8584060   7.3365260  22.5500690   2.6421230   8.2411880
  21.9952300   3.2912520   6.9911230  30.0057530   2.8647430   5.9355910
  29.4066420   3.5883230   5.7519530  30.5537140   2.8024210   5.1532360
  25.2158980   3.7569640  18.0025530  25.1202580   2.8164370  17.8525930
  26.0590960   3.9784710  17.6073600  29.1977540   4.0916720  12.0609970
  28.4658660   4.6003530  12.4100070  28.8001880   3.2746700  11.7598750
  25.6975080   1.7683000   3.4569220  25.8187900   1.7269480   4.4055040
  25.3123590   2.6307150   3.3015950  24.7096580   4.0784140   2.8552520
  24.1413480   3.6302390   2.2288430  25.4185580   4.4376920   2.3217670
  19.7865760   7.9796160  16.7319250  19.4020550   7.3389830  17.3302210
  20.0977950   8.6832280  17.3013980  25.9362900   4.8272700  12.2127870
  26.3033030   4.3531270  12.9589210  25.7467960   5.7014270  12.5536210
  23.7262270   3.8681340  14.5312080  23.4219340   4.7473320  14.7562440
  24.6808730   3.9281130  14.5669520  22.2544060   8.0742330   5.1278930
  21.4806320   7.5339950   4.9677650  22.9838690   7.5548940   4.7896690
  33.0132040   7.0707690  10.9205320  33.7331160   7.5662980  10.5301430
  32.8113860   6.3925580  10.2759190  28.3950840   7.1416750  16.8074320
  28.3288150   6.2212420  16.5531910  27.7655980   7.2392190  17.5218960
  31.1890370   2.8365300   3.3596870  32.0769990   3.1482530   3.1848210
  31.1595460   1.9637550   2.9677450  22.2981460   7.7422710   8.7657740
  22.8160130   6.9390970   8.7114630  21.8465480   7.6801850   9.6074570
  27.1850960   9.0088990   4.0385040  27.5266660   9.7531220   3.5428360
  26.3563670   9.3220110   4.4009870  19.7826000   4.7084080  15.6783440
  19.4240940   5.3737930  16.2656780  19.4880560   3.8767630  16.0496060
  22.9839120   5.1668320  18.5622990  22.6839260   5.3125500  17.6650810
  23.7550360   4.6073610  18.4696380  28.3267570   9.9637320  16.5578120
  28.3412110   9.0318280  16.3397030  27.6192670  10.0497080  17.1967890
  33.4604640   4.1477140   2.8276730  33.3768360   4.5791360   1.9773170
  34.1798830   4.6075490   3.2603550  34.5378780   6.6044660  15.9046700
  33.8126970   7.1973440  15.7076090  35.0654240   6.5968200  15.1060070
  34.4891890  11.0019400   5.5558860  33.8468050  10.3475020   5.8302580
  34.1022550  11.4074490   4.7799530  30.0678370   8.3304830   9.4030550
  30.4202190   7.7332960   8.7431920  29.1840700   8.0049060   9.5738800
  26.1541650   9.0902520   6.8100960  26.8412780   9.6371730   7.1908550
  25.3674070   9.6343250   6.8450570  18.2934050   4.7075340   2.3018040
  19.1628900   4.9900140   2.5853960  17.8024370   5.5211210   2.1866850
  25.4568860   6.0948550   6.4226320  25.9131640   6.9053800   6.6486510
  25.1057070   5.7771690   7.2544810  27.7601470  11.6054890  13.6518620
  28.4043690  11.8114270  14.3292040  28.1230910  10.8443290  13.1989470
  29.0333550   9.6087240  12.3696070  29.6755780   8.9080400  12.4828240
  29.5582900  10.3885680  12.1892960  30.8071170  10.4082140  15.5732130
  31.1427410  10.9948830  16.2510050  29.8871510  10.2774850  15.8029920
  18.6605300  13.9202720   2.8679670  19.0202940  14.5192060   2.2136940
  18.5197640  14.4662610   3.6414700  32.4605520   7.8107800   3.7549370
  32.1727220   8.2720490   4.5427250  33.2557690   7.3505570   4.0233590
  18.6447160  12.1857580  17.3422070  18.7538280  11.2452320  17.2017460
  17.9927720  12.4512330  16.6935800  26.6359750  10.4573470  18.7420190
  26.3156620   9.7382710  19.2865880  25.9618110  11.1328540  18.8156250
  24.6773920  11.3033920   3.6853340  24.6684020  12.0363610   3.0697850
  23.7572280  11.0565500   3.7780300  20.2780560   6.5248810   4.4300100
  19.6708510   7.2647710   4.4395400  20.7529910   6.6148170   3.6038300
  26.8115340   3.3439220  14.3294960  27.3100590   3.8185040  14.9946810
  26.9538290   2.4202740  14.5364990  26.3051630  13.8848480   7.0426200
  26.5593130  13.8469870   6.1205570  25.3564110  13.7581810   7.0354450
  32.3104210   4.8040360   8.6184710  31.3694350   4.8190590   8.7932400
  32.6248280   4.0176320   9.0645010  20.9832610   3.9185030   2.8621560
  21.0636200   2.9712540   2.9738960  21.8752360   4.2491910   2.9682220
  34.3129790  11.9749210  10.2938970  34.4377210  12.7980380  10.7662780
  35.1795350  11.7639940   9.9463120  21.7847320  14.0680420   9.9656100
  22.5209800  13.5195880  10.2364670  22.1688240  14.9336430   9.8262090
  18.6692800  10.1353990   5.8397610  17.7432580  10.3775130   5.8303020
  19.1349230  10.9628250   5.7182360  20.7905600  13.2526490  19.1541680
  21.5918330  13.5738540  19.5677080  20.2757420  12.8922070  19.8761590
  29.6270230   9.3606360  19.1017090  29.0208390   9.3837960  18.3612840
  29.3224340   8.6289400  19.6384340  31.0570600  13.0886650  17.7126500
  32.0092350  13.0044670  17.6626740  30.9098820  13.7528360  18.3860290
  33.9479800  12.4680860   3.2118410  33.6621310  12.0546000   2.3972590
  33.7499350  13.3968570   3.0918930  18.5103410   5.7399950  18.0977730
  19.0142430   5.1607230  18.6693960  17.7710830   6.0240180  18.6354100
  25.5641350   7.1470940  17.6313250  24.7987020   7.7155940  17.5467920
  25.7457310   6.8547150  16.7381480  28.6529760   7.5234170   2.2566010
  28.1039860   7.9703470   2.9008750  29.2749020   7.0183420   2.7803680
  32.7064700   8.8776270  18.1888270  33.4474170   9.2152030  17.6855730
  31.9437380   9.0468330  17.6358040  20.5426490   3.8829540  18.9927800
  20.5831830   3.5843410  19.9013030  21.3971990   4.2837150  18.8335320
  24.3204880   6.4825090   4.1531310  24.7421300   6.3164960   4.9962700
  24.4455720   5.6725320   3.6586450  22.4832300   2.4621640  16.9602290
  21.9528760   1.9712590  16.3325630  23.1520370   2.8905840  16.4260220
  31.3810360   6.9291100  16.7243480  31.7951380   7.0836180  17.5733900
  30.4461360   7.0546320  16.8869260  31.8532530   4.2687260  18.7282630
  32.4353300   3.5139580  18.6403110  32.0294300   4.7994700  17.9514110
  26.1425590   6.8811580  14.6939410  26.5613700   7.7244310  14.5215650
  25.2234220   7.0183620  14.4646190  28.4789490   4.6127760  16.0777250
  28.5985700   4.0168900  16.8172090  29.3383490   4.6497450  15.6578550
  30.8177390   5.1664950  14.6539760  30.2912610   5.6907570  14.0504900
  31.1608730   5.7992340  15.2849490  23.9933010  13.1864590  15.8097140
  23.4554100  13.9110650  15.4905840  24.2466970  12.7094930  15.0194480
  26.8495220  14.4215800  16.0683790  26.7753920  15.3250940  16.3756160
  25.9474060  14.1027700  16.0405860  27.3980550  13.5874310   3.6910150
  28.2931340  13.9259280   3.7128910  27.4298180  12.8653720   3.0634430
  21.0376710   8.9601360   1.9197150  21.4751580   9.5031030   2.5754730
  21.5224440   8.1348310   1.9293490  18.2522510  11.7490390   9.3717410
  18.5825520  10.8811450   9.1396050  18.6813510  11.9548910  10.2022370
  22.8484430  10.0799400   7.0319380  22.5479970   9.9564370   7.9323290
  22.7421920   9.2207990   6.6235110  18.7412720  12.6160980  12.1099040
  18.3043710  12.7961780  12.9423190  19.3090400  13.3735600  11.9680760
  34.3774900  12.1177980  16.3976350  33.7776890  12.1770540  15.6540270
  34.5068800  11.1782960  16.5273200  35.0732810   6.6043280   4.2380260
  35.8351720   7.1739930   4.3439950  35.0887180   6.0370480   5.0088570
  18.5737150   5.1281210   8.4687920  17.9185990   4.8592850   7.8247620
  19.4115100   5.0185690   8.0189900  36.0792780   7.4593380   9.0822190
  36.4501610   6.6760700   8.6758160  36.7194710   8.1482480   8.9039490
  33.0626540   8.8429960  14.4952510  32.2486380   9.2727120  14.7578300
  33.4700740   9.4548370  13.8821560  35.0217320   4.8346640   6.3882210
  34.6460920   4.0674570   5.9563500  34.2920440   5.2169340   6.8757140
  19.6113080   5.5133780  13.0091260  19.9786120   5.4261180  13.8887280
  19.0423900   4.7500330  12.9098120  34.4116940   3.9818160  16.0221730
  34.1803030   3.7530910  15.1219680  34.6721490   4.9017710  15.9766620
  19.1629080   2.4242870  16.9149680  18.2685130   2.3909630  17.2543390
  19.7026630   2.6229660  17.6800930  17.7875230   2.3380140   4.4113250
  16.8839310   2.6010340   4.2364910  18.2715850   2.6091310   3.6313210
  34.2968280   3.0604130   9.6889450  34.8205760   2.5666780   9.0579620
  34.8827700   3.1954490  10.4337020  34.4758000   3.1444000  13.2109000
  33.5260710   3.1107540  13.3253990  34.6571010   4.0544110  12.9758770
  33.7868250   2.3177480   5.6281860  34.2827370   2.0848350   6.4130740
  33.5884320   1.4789320   5.2119500  33.1202590  13.5948560   8.0220780
  33.7161660  13.2733130   7.3455200  33.3780740  13.1220380   8.8134050
  21.0265160  10.0266470  18.1711410  20.9834790   9.6559380  19.0525870
  21.1576170  10.9644040  18.3113230  24.7271190  11.5826060  13.7721130
  24.4862550  11.8500620  12.8851650  25.6673830  11.7531790  13.8271990
  35.9875350  13.6020440  14.5731770  35.4933630  13.9989310  13.8558900
  35.3788640  12.9769650  14.9669050  20.8653190  12.9728720  15.2909190
  20.2713510  12.8413420  16.0299230  20.8577030  12.1366860  14.8251290
  33.6714800  14.2443860  11.8518510  33.2117770  14.9959670  11.4776530
  33.0427260  13.5250330  11.7933310  20.4965420  10.3387100  14.2417230
  19.7699480   9.7192390  14.1743180  20.5574570  10.7327710  13.3715310
  24.1010520  12.5532100  11.0266640  24.6175540  11.9419460  10.5014900
  24.7507900  13.0560880  11.5177650  26.8406020  13.4440590  11.8535620
  27.1283830  13.1894890  10.9768630  27.3529240  12.8917950  12.4441190
  18.7795420  13.6561490   7.4513990  18.6117460  13.0232170   8.1495880
  17.9129930  13.8620890   7.1008180  20.3858120  12.3494720   4.8964130
  19.8605740  12.7302750   4.1926090  20.3102700  12.9745490   5.6173840
  26.9078380  14.3656690  19.2203820  27.8345690  14.1300960  19.2639780
  26.8928810  15.1928690  18.7389850  35.1423440  13.9082260   6.2178070
  35.3175630  13.2220000   5.5738990  34.4445010  14.4329310   5.8254740
  22.9851090  14.2977100   3.7713380  23.7169910  14.0136380   3.2237270
  23.2444760  14.0590380   4.6612760  22.1465880  10.4141830   3.7759710
  21.5174760  10.8826930   4.3245540  22.2613710   9.5691050   4.2105900
  33.4755940  13.5926550  19.0444860  34.2681260  13.0975780  18.8370820
  33.7689090  14.2716690  19.6520470  10.8272110  79.5621450  83.7978360
  10.7466160  78.6476060  83.5270070  10.4136530  80.0588520  83.0918070
   8.9590150  81.3400470  85.6787630   8.1832250  80.8600910  85.9686200
   9.6103080  80.6606120  85.5043790   2.9755980  81.6520280  86.5563390
   2.1440860  81.3968990  86.9559900   3.5836960  81.7231050  87.2921310
   8.3999140  84.0157660  85.6857790   8.3307420  83.0747600  85.5246920
   9.1619000  84.1059070  86.2580360   9.4304310  76.8228040  85.9126720
   9.8069130  75.9499920  85.8000390   9.3323820  77.1586740  85.0217160
   3.5609320  75.1953670  81.3744160   3.6676070  76.0957400  81.6812920
   2.6501680  75.1471640  81.0838810  13.2128430  74.3178480  82.8455060
  14.0338050  73.8275050  82.8880540  13.2462510  74.9076140  83.5986900
   5.4017050  78.1640040  85.7069340   5.9095270  78.6621010  86.3474360
   5.9330290  77.3875240  85.5308700  17.5027980  76.3345230  89.4098690
  16.7980150  76.7226940  88.8913800  17.7685900  77.0295520  90.0119620
   3.6853150  72.8038600  89.9732760   3.6871590  73.3210990  89.1678660
   2.8557460  72.3268780  89.9502690  10.0724240  82.9157910  81.4722660
   9.4541510  83.3807360  80.9085380  10.5847490  83.6085390  81.8892170
   4.9356000  82.4433780  88.1506260   4.6025380  83.0702700  88.7927330
   5.1122680  82.9695660  87.3707930  13.4489910  76.2578860  85.6182600
  12.7445480  76.5463750  86.1985710  13.8102070  77.0678970  85.2582160
   3.3668480  74.5148560  87.9803210   3.7085290  75.3590610  87.6857080
   2.4284290  74.6632300  88.0968550  16.5176830  75.7033650  86.0091810
  15.5701740  75.7372630  86.1407240  16.8426820  76.5172600  86.3941170
   7.0496370  72.0030830  84.3047800   7.3571350  71.4477720  83.5883300
   6.1197070  72.1375290  84.1220790  11.9996870  82.6227960  87.9237870
  12.4165660  82.4088070  87.0891330  12.7236690  82.8800750  88.4946490
   9.4377130  80.0679660  81.0407920   8.5106410  80.0017040  81.2696390
   9.5901950  81.0059790  80.9263160   9.4246210  76.3396660  78.0375080
   8.4849880  76.5010620  78.1227540   9.7429470  77.0582340  77.4911070
  15.9458970  81.0215180  88.0154110  15.1177600  81.0908270  87.5404240
  16.5409450  81.6069490  87.5469940  13.4674420  81.6299960  81.5443170
  12.8486840  81.2919510  80.8969470  13.4498870  80.9859720  82.2522360
  12.9100980  77.8084500  88.9608980  12.4972160  78.6338210  89.2148970
  12.1776930  77.2229540  88.7685340   5.0433770  80.5944400  83.8227650
   4.6390770  79.8821650  83.3273550   5.1296890  80.2497640  84.7115690
   3.7562390  77.3687610  87.6026690   4.3076980  77.4782950  86.8279940
   4.2705900  77.7425210  88.3181920  11.6439120  80.8686770  78.5515920
  12.0832400  80.0309200  78.4053740  12.3567540  81.5016170  78.6380060
   3.4305120  80.8906970  91.2132030   3.2912890  81.7629770  91.5819430
   2.5486480  80.5479780  91.0679970  15.2256260  72.1229580  76.8656960
  14.9128920  72.2156410  77.7656030  15.9868730  72.7010610  76.8154390
  16.4357550  76.8601080  92.8431100  15.8201820  77.3680750  92.3146560
  16.1153970  75.9599410  92.7857040   4.2102060  72.8324450  84.7057970
   3.7670210  73.6133990  84.3742490   4.7687050  73.1554340  85.4128910
   8.4971870  75.6992970  90.3093290   8.0351240  75.9075990  91.1213230
   8.0949980  74.8852320  90.0063960  13.4976380  76.9201920  91.4389950
  12.6469970  76.6207670  91.7599020  13.3378170  77.1643930  90.5273770
  10.5926090  78.4203670  93.5388740  10.9179500  77.5867420  93.1990970
  11.3806420  78.9432190  93.6867070   7.3260880  72.4535150  79.5863800
   6.7015060  72.4495020  80.3117110   7.2391000  71.5866110  79.1899770
   6.2477960  73.3771780  86.5647570   6.5450290  74.2834610  86.4839590
   6.7963520  72.8890560  85.9507140   4.0016280  77.9558020  82.4339220
   3.7757200  77.7395190  83.3385840   3.2208810  78.3886480  82.0885190
  11.2314040  77.9621390  81.0329870  10.6322930  78.6857190  80.8493490
  11.7793650  77.8998170  80.2506320   6.4415490  78.8543600  93.0999490
   6.3459090  77.9138330  92.9499890   7.2847470  79.0758670  92.7047560
   9.8378910  76.5984930  83.0633150  10.2308480  76.9157130  82.2501840
  10.1995760  75.7196810  83.1777670  10.4234050  79.1890680  87.1583930
   9.6915170  79.6977490  87.5074030  10.0258390  78.3720660  86.8572710
   6.8611440  75.8644880  85.5636420   6.8647500  75.4234830  84.7140960
   7.7562560  76.1862210  85.6708240   2.7113820  75.7471370  84.5230630
   2.3713870  76.2246600  85.2797680   1.9491140  75.2936490  84.1631730
   6.9231590  76.8656960  78.5543180   7.0444410  76.8243440  79.5029000
   6.5380100  77.7281110  78.3989910  10.8859960  74.6424360  86.5706870
  10.9032700  75.0933010  87.4148720  10.6375540  73.7430000  86.7840310
   5.9353090  79.1758100  77.9526480   5.3669990  78.7276350  77.3262390
   6.6442090  79.5350880  77.4191630  14.3130710  72.0556540  92.4093250
  14.6376480  71.3246200  92.9351230  14.3487220  71.7370180  91.5074240
   7.1619410  79.9246660  87.3101830   7.5289540  79.4505230  88.0563170
   6.9724470  80.7988230  87.6510170   4.9518780  78.9655300  89.6286040
   4.6475850  79.8447280  89.8536400   5.9065240  79.0255090  89.6643480
   3.4800570  83.1716290  80.2252890   2.7062830  82.6313910  80.0651610
   4.2095200  82.6522900  79.8870650  14.2388550  82.1681650  86.0179280
  14.9587670  82.6636940  85.6275390  14.0370370  81.4899540  85.3733150
   9.6998490  73.5619610  80.1608670   8.8863100  73.0632780  80.0853980
   9.5060440  74.4017860  79.7445020   9.6207350  82.2390710  91.9048280
   9.5544660  81.3186380  91.6505870   8.9912490  82.3366150  92.6192920
  12.4146880  77.9339260  78.4570830  13.3026500  78.2456490  78.2822170
  12.3851970  77.0611510  78.0651410   3.5237970  82.8396670  83.8631700
   4.0416640  82.0364930  83.8088590   3.0721990  82.7775810  84.7048530
   4.2095630  80.2642280  93.6596950   3.9095770  80.4099460  92.7624770
   4.9806870  79.7047570  93.5670340  14.6861150  79.2451100  77.9250690
  14.6024870  79.6765320  77.0747130  15.4055340  79.7049450  78.3577510
  15.7635290  81.7018620  91.0020660  15.0383480  82.2947400  90.8050050
  16.2910750  81.6942160  90.2034030  11.2934880  83.4278790  84.5004510
  11.6458700  82.8306920  83.8405880  10.4097210  83.1023020  84.6712760
   6.6825370  81.1922510  81.5200280   7.1388150  82.0027760  81.7460470
   6.3313580  80.8745650  82.3518770   2.5837150  71.5360160  81.9922800
   2.4551780  71.5278060  82.9407720   1.7599170  71.8743250  81.6413810
  13.6862030  82.9081760  78.8523330  13.3983730  83.3694450  79.6401210
  14.4814200  82.4479530  79.1207550  11.0769860  75.7873590  89.2030950
  11.4450680  74.9668800  89.5310520  10.2168060  75.8475480  89.6186600
  14.4431890  74.7430530  80.0118510  13.8145050  74.8476200  79.2976740
  13.9483810  74.9627310  80.8012390   6.4115920  77.0216480  81.4276390
   5.7032070  77.4902820  81.8690000   6.6960400  76.3638490  82.0621580
   8.0371850  78.4413180  89.4268920   8.5357100  78.9159000  90.0920770
   8.1794800  77.5176700  89.6338950  10.4431350  73.7467140  82.8672180
  10.3199130  73.7653270  81.9181690  11.3915910  73.7946080  82.9870580
   4.6150940  75.3301560  78.8027100   5.4641470  75.7671710  78.7367290
   4.2482210  75.6421820  79.6299160  15.2438710  74.6581140  90.2697310
  14.7412310  75.3986540  90.6091120  16.0595370  75.0465140  89.9534100
  13.5360720  79.9014320  83.7158670  12.5950860  79.9164550  83.8906360
  13.8504790  79.1150280  84.1618970   3.5142360  81.5833920  77.2762630
   4.2805630  81.4715280  77.8388060   3.5917050  80.8871890  76.6239400
   2.2089120  79.0158990  77.9595520   2.2892710  78.0686500  78.0712920
   3.1008870  79.3465870  78.0656180   6.6383540  83.5588100  76.7497980
   6.5334180  82.9440450  77.4759360   6.4707760  83.0353990  75.9660990
   6.7897860  82.2444900  92.7287210   6.0243530  82.8129900  92.6441880
   6.9713820  81.9521110  91.8355440   9.8786270  82.6208130  77.3539970
   9.3296370  83.0677430  77.9982710  10.5005530  82.1157380  77.8777640
   5.5461390  81.5799050  79.2505270   5.9677810  81.4138920  80.0936660
   5.6712230  80.7699280  78.7560410   3.7088810  77.5595600  92.0576250
   3.1785270  77.0686550  91.4299590   4.3776880  77.9879800  91.5234180
   8.0589030  80.6036660  76.4982370   8.5794690  79.8885680  76.1323520
   8.7057430  81.2422530  76.7982880  12.6066870  82.0265060  91.8217440
  13.0207890  82.1810140  92.6707860  11.6717870  82.1520280  91.9843220
  13.0789040  79.3661220  93.8256590  13.6609810  78.6113540  93.7377070
  13.2550810  79.8968660  93.0488070   4.1961110  74.5257970  92.1373540
   4.1017980  73.9078720  91.4124410   3.6158500  75.2524260  91.9103450
   6.9622550  73.0831210  89.1700930   6.5139850  73.1055470  88.3246480
   6.3287750  72.6850230  89.7671230   7.3682100  81.9785540  89.7913370
   7.7870210  82.8218270  89.6189610   6.4490730  82.1157580  89.5620150
   9.7046000  79.7101720  91.1751210   9.8242210  79.1142860  91.9146050
  10.5640000  79.7471410  90.7552510  12.0433900  80.2638910  89.7513720
  11.5169120  80.7881530  89.1478860  12.3865240  80.8966300  90.3823450
   4.4420290  77.6532280  76.1963430   4.2409350  76.7899640  76.5576770
   4.2712340  77.5665640  75.2585030   6.4714770  76.2523070  92.4327030
   7.0614460  75.9438920  93.1204850   5.6535010  75.7802820  92.5886930
  11.2908200  75.8688880  92.6660050  10.6023720  75.2070420  92.6010040
  12.0114220  75.4227150  93.1108510  11.9208600  72.4640510  78.7250310
  12.2010890  71.6208410  79.0809730  11.1474330  72.6963620  79.2389060
   3.2403090  74.7532900  76.1841310   3.5428990  74.7600330  75.2760460
   3.9797680  74.4030760  76.6808970   6.4588020  73.6967520  77.1697510
   6.1110020  73.0191510  76.5899960   6.6600790  73.2357030  77.9840900
  16.2989320  81.7017240  79.3354220  17.0608230  82.2713890  79.4413910
  16.3143690  81.1344440  80.1062530  17.3049290  82.5567340  84.1796150
  17.6758120  81.7734660  83.7732120  17.9451220  83.2456440  84.0013450
  16.3508490  81.9951610  76.4926740  16.6257330  82.9030490  76.3645960
  16.1619230  81.9314140  77.4288730  12.7484100  75.0196460  77.7880370
  13.1668980  74.8327440  76.9477030  12.4420160  74.1675510  78.0983300
  16.2473830  79.9320600  81.4856170  15.8717430  79.1648530  81.0537460
  15.5176950  80.3143300  81.9731100  15.6373450  79.0792120  91.1195690
  15.4059540  78.8504870  90.2193640  15.8978000  79.9991670  91.0740580
  15.5224790  78.1578090  84.7863410  16.0462270  77.6640740  84.1553580
  16.1084210  78.2928450  85.5310980  15.7014510  78.2417960  88.3082960
  14.7517220  78.2081500  88.4227950  15.8827520  79.1518070  88.0732730
  15.0124760  77.4151440  80.7255820  15.5083880  77.1822310  81.5104700
  14.8140830  76.5763280  80.3093460  16.4411920  76.0512390  83.2593500
  16.3311200  75.8968430  84.1975770  17.2019510  75.5233330  83.0168910
  14.7877640  71.9906520  89.7176500  15.4249860  72.6040660  90.0835690
  14.9352530  72.0267180  88.7725730  17.3302190  73.8820310  76.4999640
  18.2551500  73.7501490  76.2917930  17.3077980  73.9613130  77.4536090
  17.4040680  74.6530970  79.1256350  16.6092180  74.5876090  79.6549260
  17.6083960  75.5881610  79.1141700   8.1582120  73.1432710  92.6251600
   8.0971010  73.7354540  93.3747010   9.0982500  73.0358670  92.4801860
  10.7956680  72.8002770  92.2643890  11.4097090  73.1182060  91.6024970
  11.3406240  72.3151360  92.8839750  11.5364720  71.3634910  88.5913180
  10.6624560  71.6970020  88.3886110  11.4275470  70.8908090  89.4165050
  12.4436700  73.5705780  89.9754900  12.1150060  72.7557540  89.5956630
  13.3919000  73.5275590  89.8520590   9.2839540  72.2804750  87.5306090
   8.5011330  72.7550250  87.8102850   8.9902470  71.3759580  87.4219270
  13.8360610  72.9827850  85.5755180  14.2768700  72.9272950  84.7276780
  13.5668200  73.8985860  85.6465360  15.6999180  72.6143090  83.5864000
  15.6387580  71.6704310  83.4395020  16.4791210  72.7223180  84.1317460
   7.1693760  74.6991500  83.0422120   6.3568270  74.3248390  82.7018000
   7.6735400  73.9436580  83.3443310  11.6718740  71.3633950  84.2805190
  12.2748110  71.9354160  84.7553710  10.9311730  71.9273390  84.0579090
  14.8153340  71.7655510  79.5545470  15.0103970  72.6638960  79.8212900
  14.0283210  71.5342590  80.0478420   3.0005100  73.1116280  78.5921780
   3.5297860  72.3246080  78.4629730   3.6333420  73.7907470  78.8257310
   5.1942940  72.8491420  81.6467170   4.5645680  72.1478730  81.8137300
   4.6548080  73.6095550  81.4300330  10.8272110  79.5621450  65.0234870
  10.7466160  78.6476060  64.7526580  10.4136530  80.0588520  64.3174580
   8.9590150  81.3400470  66.9044140   8.1832250  80.8600910  67.1942710
   9.6103080  80.6606120  66.7300300   2.9755980  81.6520280  67.7819900
   2.1440860  81.3968990  68.1816410   3.5836960  81.7231050  68.5177820
   8.3999140  84.0157660  66.9114300   8.3307420  83.0747600  66.7503430
   9.1619000  84.1059070  67.4836870   9.4304310  76.8228040  67.1383230
   9.8069130  75.9499920  67.0256900   9.3323820  77.1586740  66.2473670
   3.5609320  75.1953670  62.6000670   3.6676070  76.0957400  62.9069430
   2.6501680  75.1471640  62.3095320  13.2128430  74.3178480  64.0711570
  14.0338050  73.8275050  64.1137050  13.2462510  74.9076140  64.8243410
   5.4017050  78.1640040  66.9325850   5.9095270  78.6621010  67.5730870
   5.9330290  77.3875240  66.7565210  17.5027980  76.3345230  70.6355200
  16.7980150  76.7226940  70.1170310  17.7685900  77.0295520  71.2376130
   3.6853150  72.8038600  71.1989270   3.6871590  73.3210990  70.3935170
   2.8557460  72.3268780  71.1759200  10.0724240  82.9157910  62.6979170
   9.4541510  83.3807360  62.1341890  10.5847490  83.6085390  63.1148680
   4.9356000  82.4433780  69.3762770   4.6025380  83.0702700  70.0183840
   5.1122680  82.9695660  68.5964440  13.4489910  76.2578860  66.8439110
  12.7445480  76.5463750  67.4242220  13.8102070  77.0678970  66.4838670
   3.3668480  74.5148560  69.2059720   3.7085290  75.3590610  68.9113590
   2.4284290  74.6632300  69.3225060  16.5176830  75.7033650  67.2348320
  15.5701740  75.7372630  67.3663750  16.8426820  76.5172600  67.6197680
   7.0496370  72.0030830  65.5304310   7.3571350  71.4477720  64.8139810
   6.1197070  72.1375290  65.3477300  11.9996870  82.6227960  69.1494380
  12.4165660  82.4088070  68.3147840  12.7236690  82.8800750  69.7203000
   9.4377130  80.0679660  62.2664430   8.5106410  80.0017040  62.4952900
   9.5901950  81.0059790  62.1519670   9.4246210  76.3396660  59.2631590
   8.4849880  76.5010620  59.3484050   9.7429470  77.0582340  58.7167580
  15.9458970  81.0215180  69.2410620  15.1177600  81.0908270  68.7660750
  16.5409450  81.6069490  68.7726450  13.4674420  81.6299960  62.7699680
  12.8486840  81.2919510  62.1225980  13.4498870  80.9859720  63.4778870
  12.9100980  77.8084500  70.1865490  12.4972160  78.6338210  70.4405480
  12.1776930  77.2229540  69.9941850   5.0433770  80.5944400  65.0484160
   4.6390770  79.8821650  64.5530060   5.1296890  80.2497640  65.9372200
   3.7562390  77.3687610  68.8283200   4.3076980  77.4782950  68.0536450
   4.2705900  77.7425210  69.5438430  11.6439120  80.8686770  59.7772430
  12.0832400  80.0309200  59.6310250  12.3567540  81.5016170  59.8636570
   3.4305120  80.8906970  72.4388540   3.2912890  81.7629770  72.8075940
   2.5486480  80.5479780  72.2936480  15.2256260  72.1229580  58.0913470
  14.9128920  72.2156410  58.9912540  15.9868730  72.7010610  58.0410900
  16.4357550  76.8601080  74.0687610  15.8201820  77.3680750  73.5403070
  16.1153970  75.9599410  74.0113550   4.2102060  72.8324450  65.9314480
   3.7670210  73.6133990  65.5999000   4.7687050  73.1554340  66.6385420
   8.4971870  75.6992970  71.5349800   8.0351240  75.9075990  72.3469740
   8.0949980  74.8852320  71.2320470  13.4976380  76.9201920  72.6646460
  12.6469970  76.6207670  72.9855530  13.3378170  77.1643930  71.7530280
  10.5926090  78.4203670  74.7645250  10.9179500  77.5867420  74.4247480
  11.3806420  78.9432190  74.9123580   7.3260880  72.4535150  60.8120310
   6.7015060  72.4495020  61.5373620   7.2391000  71.5866110  60.4156280
   6.2477960  73.3771780  67.7904080   6.5450290  74.2834610  67.7096100
   6.7963520  72.8890560  67.1763650   4.0016280  77.9558020  63.6595730
   3.7757200  77.7395190  64.5642350   3.2208810  78.3886480  63.3141700
  11.2314040  77.9621390  62.2586380  10.6322930  78.6857190  62.0750000
  11.7793650  77.8998170  61.4762830   6.4415490  78.8543600  74.3256000
   6.3459090  77.9138330  74.1756400   7.2847470  79.0758670  73.9304070
   9.8378910  76.5984930  64.2889660  10.2308480  76.9157130  63.4758350
  10.1995760  75.7196810  64.4034180   8.1471080  75.3492240  75.5486520
   7.4569400  75.1564440  76.1832610   8.8903380  75.6326880  76.0810820
  10.4234050  79.1890680  68.3840440   9.6915170  79.6977490  68.7330540
  10.0258390  78.3720660  68.0829220   6.8611440  75.8644880  66.7892930
   6.8647500  75.4234830  65.9397470   7.7562560  76.1862210  66.8964750
   2.7113820  75.7471370  65.7487140   2.3713870  76.2246600  66.5054190
   1.9491140  75.2936490  65.3888240   6.9231590  76.8656960  59.7799690
   7.0444410  76.8243440  60.7285510   6.5380100  77.7281110  59.6246420
  10.8859960  74.6424360  67.7963380  10.9032700  75.0933010  68.6405230
  10.6375540  73.7430000  68.0096820   5.9353090  79.1758100  59.1782990
   5.3669990  78.7276350  58.5518900   6.6442090  79.5350880  58.6448140
  14.3130710  72.0556540  73.6349760  14.6376480  71.3246200  74.1607740
  14.3487220  71.7370180  72.7330750   7.1619410  79.9246660  68.5358340
   7.5289540  79.4505230  69.2819680   6.9724470  80.7988230  68.8766680
   4.9518780  78.9655300  70.8542550   4.6475850  79.8447280  71.0792910
   5.9065240  79.0255090  70.8899990   3.4800570  83.1716290  61.4509400
   2.7062830  82.6313910  61.2908120   4.2095200  82.6522900  61.1127160
  14.2388550  82.1681650  67.2435790  14.9587670  82.6636940  66.8531900
  14.0370370  81.4899540  66.5989660   9.6998490  73.5619610  61.3865180
   8.8863100  73.0632780  61.3110490   9.5060440  74.4017860  60.9701530
   9.6207350  82.2390710  73.1304790   9.5544660  81.3186380  72.8762380
   8.9912490  82.3366150  73.8449430  12.4146880  77.9339260  59.6827340
  13.3026500  78.2456490  59.5078680  12.3851970  77.0611510  59.2907920
   3.5237970  82.8396670  65.0888210   4.0416640  82.0364930  65.0345100
   3.0721990  82.7775810  65.9305040   4.2095630  80.2642280  74.8853460
   3.9095770  80.4099460  73.9881280   4.9806870  79.7047570  74.7926850
  14.6861150  79.2451100  59.1507200  14.6024870  79.6765320  58.3003640
  15.4055340  79.7049450  59.5834020  15.7635290  81.7018620  72.2277170
  15.0383480  82.2947400  72.0306560  16.2910750  81.6942160  71.4290540
  11.2934880  83.4278790  65.7261020  11.6458700  82.8306920  65.0662390
  10.4097210  83.1023020  65.8969270   6.6825370  81.1922510  62.7456790
   7.1388150  82.0027760  62.9716980   6.3313580  80.8745650  63.5775280
   2.5837150  71.5360160  63.2179310   2.4551780  71.5278060  64.1664230
   1.7599170  71.8743250  62.8670320  13.6862030  82.9081760  60.0779840
  13.3983730  83.3694450  60.8657720  14.4814200  82.4479530  60.3464060
  11.0769860  75.7873590  70.4287460  11.4450680  74.9668800  70.7567030
  10.2168060  75.8475480  70.8443110  14.4431890  74.7430530  61.2375020
  13.8145050  74.8476200  60.5233250  13.9483810  74.9627310  62.0268900
   6.4115920  77.0216480  62.6532900   5.7032070  77.4902820  63.0946510
   6.6960400  76.3638490  63.2878090   8.0371850  78.4413180  70.6525430
   8.5357100  78.9159000  71.3177280   8.1794800  77.5176700  70.8595460
  10.4431350  73.7467140  64.0928690  10.3199130  73.7653270  63.1438200
  11.3915910  73.7946080  64.2127090   4.6150940  75.3301560  60.0283610
   5.4641470  75.7671710  59.9623800   4.2482210  75.6421820  60.8555670
  15.2438710  74.6581140  71.4953820  14.7412310  75.3986540  71.8347630
  16.0595370  75.0465140  71.1790610  13.5360720  79.9014320  64.9415180
  12.5950860  79.9164550  65.1162870  13.8504790  79.1150280  65.3875480
   3.5142360  81.5833920  58.5019140   4.2805630  81.4715280  59.0644570
   3.5917050  80.8871890  57.8495910   2.2089120  79.0158990  59.1852030
   2.2892710  78.0686500  59.2969430   3.1008870  79.3465870  59.2912690
   6.6383540  83.5588100  57.9754490   6.5334180  82.9440450  58.7015870
   6.4707760  83.0353990  57.1917500   6.7897860  82.2444900  73.9543720
   6.0243530  82.8129900  73.8698390   6.9713820  81.9521110  73.0611950
   9.8786270  82.6208130  58.5796480   9.3296370  83.0677430  59.2239220
  10.5005530  82.1157380  59.1034150   1.7683000  78.9803500  75.3158270
   1.8088340  78.6817370  76.2243500   2.6228500  79.3811110  75.1565790
   5.5461390  81.5799050  60.4761780   5.9677810  81.4138920  61.3193170
   5.6712230  80.7699280  59.9816920   3.7088810  77.5595600  73.2832760
   3.1785270  77.0686550  72.6556100   4.3776880  77.9879800  72.7490690
   8.0589030  80.6036660  57.7238880   8.5794690  79.8885680  57.3580030
   8.7057430  81.2422530  58.0239390  12.6066870  82.0265060  73.0473950
  13.0207890  82.1810140  73.8964370  11.6717870  82.1520280  73.2099730
  13.0789040  79.3661220  75.0513100  13.6609810  78.6113540  74.9633580
  13.2550810  79.8968660  74.2744580   4.1961110  74.5257970  73.3630050
   4.1017980  73.9078720  72.6380920   3.6158500  75.2524260  73.1359960
   6.9622550  73.0831210  70.3957440   6.5139850  73.1055470  69.5502990
   6.3287750  72.6850230  70.9927740   7.3682100  81.9785540  71.0169880
   7.7870210  82.8218270  70.8446120   6.4490730  82.1157580  70.7876660
   9.7046000  79.7101720  72.4007720   9.8242210  79.1142860  73.1402560
  10.5640000  79.7471410  71.9809020  12.0433900  80.2638910  70.9770230
  11.5169120  80.7881530  70.3735370  12.3865240  80.8966300  71.6079960
   4.4420290  77.6532280  57.4219940   4.2409350  76.7899640  57.7833280
   4.2712340  77.5665640  56.4841540   6.4714770  76.2523070  73.6583540
   7.0614460  75.9438920  74.3461360   5.6535010  75.7802820  73.8143440
  11.2908200  75.8688880  73.8916560  10.6023720  75.2070420  73.8266550
  12.0114220  75.4227150  74.3365020  11.9208600  72.4640510  59.9506820
  12.2010890  71.6208410  60.3066240  11.1474330  72.6963620  60.4645570
   3.2403090  74.7532900  57.4097820   3.5428990  74.7600330  56.5016970
   3.9797680  74.4030760  57.9065480   6.4588020  73.6967520  58.3954020
   6.1110020  73.0191510  57.8156470   6.6600790  73.2357030  59.2097410
  16.2989320  81.7017240  60.5610730  17.0608230  82.2713890  60.6670420
  16.3143690  81.1344440  61.3319040  17.3049290  82.5567340  65.4052660
  17.6758120  81.7734660  64.9988630  17.9451220  83.2456440  65.2269960
  16.3508490  81.9951610  57.7183250  16.6257330  82.9030490  57.5902470
  16.1619230  81.9314140  58.6545240  12.7484100  75.0196460  59.0136880
  13.1668980  74.8327440  58.1733540  12.4420160  74.1675510  59.3239810
  16.2473830  79.9320600  62.7112680  15.8717430  79.1648530  62.2793970
  15.5176950  80.3143300  63.1987610  15.6373450  79.0792120  72.3452200
  15.4059540  78.8504870  71.4450150  15.8978000  79.9991670  72.2997090
  14.0761520  74.3048550  75.1231900  14.9531700  74.3131950  75.5065900
  14.0882360  73.5679390  74.5124250  15.5224790  78.1578090  66.0119920
  16.0462270  77.6640740  65.3810090  16.1084210  78.2928450  66.7567490
  15.7014510  78.2417960  69.5339470  14.7517220  78.2081500  69.6484460
  15.8827520  79.1518070  69.2989240  15.0124760  77.4151440  61.9512330
  15.5083880  77.1822310  62.7361210  14.8140830  76.5763280  61.5349970
  16.4411920  76.0512390  64.4850010  16.3311200  75.8968430  65.4232280
  17.2019510  75.5233330  64.2425420  14.7877640  71.9906520  70.9433010
  15.4249860  72.6040660  71.3092200  14.9352530  72.0267180  69.9982240
  17.3302190  73.8820310  57.7256150  18.2551500  73.7501490  57.5174440
  17.3077980  73.9613130  58.6792600  17.4040680  74.6530970  60.3512860
  16.6092180  74.5876090  60.8805770  17.6083960  75.5881610  60.3398210
   8.1582120  73.1432710  73.8508110   8.0971010  73.7354540  74.6003520
   9.0982500  73.0358670  73.7058370  10.7956680  72.8002770  73.4900400
  11.4097090  73.1182060  72.8281480  11.3406240  72.3151360  74.1096260
  11.5364720  71.3634910  69.8169690  10.6624560  71.6970020  69.6142620
  11.4275470  70.8908090  70.6421560  12.4436700  73.5705780  71.2011410
  12.1150060  72.7557540  70.8213140  13.3919000  73.5275590  71.0777100
   9.2839540  72.2804750  68.7562600   8.5011330  72.7550250  69.0359360
   8.9902470  71.3759580  68.6475780  13.8360610  72.9827850  66.8011690
  14.2768700  72.9272950  65.9533290  13.5668200  73.8985860  66.8721870
  15.6999180  72.6143090  64.8120510  15.6387580  71.6704310  64.6651530
  16.4791210  72.7223180  65.3573970   7.1693760  74.6991500  64.2678630
   6.3568270  74.3248390  63.9274510   7.6735400  73.9436580  64.5699820
  11.6718740  71.3633950  65.5061700  12.2748110  71.9354160  65.9810220
  10.9311730  71.9273390  65.2835600  14.8153340  71.7655510  60.7801980
  15.0103970  72.6638960  61.0469410  14.0283210  71.5342590  61.2734930
   3.0005100  73.1116280  59.8178290   3.5297860  72.3246080  59.6886240
   3.6333420  73.7907470  60.0513820   5.1942940  72.8491420  62.8723680
   4.5645680  72.1478730  63.0393810   4.6548080  73.6095550  62.6556840
   5.3198500  72.1275400  75.3076170   5.0382770  72.6309000  74.5436990
   5.7018200  71.3297150  74.9418300  11.9213960  71.5428980  75.8856640
  11.8079410  71.8623590  76.7808160  12.7383700  71.9441490  75.5893920
  10.8272110  79.5621450  46.2491380  10.7466160  78.6476060  45.9783090
  10.4136530  80.0588520  45.5431090   8.9590150  81.3400470  48.1300650
   8.1832250  80.8600910  48.4199220   9.6103080  80.6606120  47.9556810
   2.9755980  81.6520280  49.0076410   2.1440860  81.3968990  49.4072920
   3.5836960  81.7231050  49.7434330   8.3999140  84.0157660  48.1370810
   8.3307420  83.0747600  47.9759940   9.1619000  84.1059070  48.7093380
   9.4304310  76.8228040  48.3639740   9.8069130  75.9499920  48.2513410
   9.3323820  77.1586740  47.4730180   3.5609320  75.1953670  43.8257180
   3.6676070  76.0957400  44.1325940   2.6501680  75.1471640  43.5351830
  13.2128430  74.3178480  45.2968080  14.0338050  73.8275050  45.3393560
  13.2462510  74.9076140  46.0499920   5.4017050  78.1640040  48.1582360
   5.9095270  78.6621010  48.7987380   5.9330290  77.3875240  47.9821720
  17.5027980  76.3345230  51.8611710  16.7980150  76.7226940  51.3426820
  17.7685900  77.0295520  52.4632640   3.6853150  72.8038600  52.4245780
   3.6871590  73.3210990  51.6191680   2.8557460  72.3268780  52.4015710
  10.0724240  82.9157910  43.9235680   9.4541510  83.3807360  43.3598400
  10.5847490  83.6085390  44.3405190   4.9356000  82.4433780  50.6019280
   4.6025380  83.0702700  51.2440350   5.1122680  82.9695660  49.8220950
  13.4489910  76.2578860  48.0695620  12.7445480  76.5463750  48.6498730
  13.8102070  77.0678970  47.7095180   3.3668480  74.5148560  50.4316230
   3.7085290  75.3590610  50.1370100   2.4284290  74.6632300  50.5481570
  16.5176830  75.7033650  48.4604830  15.5701740  75.7372630  48.5920260
  16.8426820  76.5172600  48.8454190   7.0496370  72.0030830  46.7560820
   7.3571350  71.4477720  46.0396320   6.1197070  72.1375290  46.5733810
  11.9996870  82.6227960  50.3750890  12.4165660  82.4088070  49.5404350
  12.7236690  82.8800750  50.9459510   9.4377130  80.0679660  43.4920940
   8.5106410  80.0017040  43.7209410   9.5901950  81.0059790  43.3776180
   9.4246210  76.3396660  40.4888100   8.4849880  76.5010620  40.5740560
   9.7429470  77.0582340  39.9424090  15.9458970  81.0215180  50.4667130
  15.1177600  81.0908270  49.9917260  16.5409450  81.6069490  49.9982960
  13.4674420  81.6299960  43.9956190  12.8486840  81.2919510  43.3482490
  13.4498870  80.9859720  44.7035380  12.9100980  77.8084500  51.4122000
  12.4972160  78.6338210  51.6661990  12.1776930  77.2229540  51.2198360
   5.0433770  80.5944400  46.2740670   4.6390770  79.8821650  45.7786570
   5.1296890  80.2497640  47.1628710   3.7562390  77.3687610  50.0539710
   4.3076980  77.4782950  49.2792960   4.2705900  77.7425210  50.7694940
  11.6439120  80.8686770  41.0028940  12.0832400  80.0309200  40.8566760
  12.3567540  81.5016170  41.0893080   3.4305120  80.8906970  53.6645050
   3.2912890  81.7629770  54.0332450   2.5486480  80.5479780  53.5192990
  15.2256260  72.1229580  39.3169980  14.9128920  72.2156410  40.2169050
  15.9868730  72.7010610  39.2667410  16.4357550  76.8601080  55.2944120
  15.8201820  77.3680750  54.7659580  16.1153970  75.9599410  55.2370060
   4.2102060  72.8324450  47.1570990   3.7670210  73.6133990  46.8255510
   4.7687050  73.1554340  47.8641930   8.4971870  75.6992970  52.7606310
   8.0351240  75.9075990  53.5726250   8.0949980  74.8852320  52.4576980
  13.4976380  76.9201920  53.8902970  12.6469970  76.6207670  54.2112040
  13.3378170  77.1643930  52.9786790  10.5926090  78.4203670  55.9901760
  10.9179500  77.5867420  55.6503990  11.3806420  78.9432190  56.1380090
   7.3260880  72.4535150  42.0376820   6.7015060  72.4495020  42.7630130
   7.2391000  71.5866110  41.6412790   6.2477960  73.3771780  49.0160590
   6.5450290  74.2834610  48.9352610   6.7963520  72.8890560  48.4020160
   4.0016280  77.9558020  44.8852240   3.7757200  77.7395190  45.7898860
   3.2208810  78.3886480  44.5398210  11.2314040  77.9621390  43.4842890
  10.6322930  78.6857190  43.3006510  11.7793650  77.8998170  42.7019340
   6.4415490  78.8543600  55.5512510   6.3459090  77.9138330  55.4012910
   7.2847470  79.0758670  55.1560580   9.8378910  76.5984930  45.5146170
  10.2308480  76.9157130  44.7014860  10.1995760  75.7196810  45.6290690
   8.1471080  75.3492240  56.7743030   7.4569400  75.1564440  57.4089120
   8.8903380  75.6326880  57.3067330  10.4234050  79.1890680  49.6096950
   9.6915170  79.6977490  49.9587050  10.0258390  78.3720660  49.3085730
   6.8611440  75.8644880  48.0149440   6.8647500  75.4234830  47.1653980
   7.7562560  76.1862210  48.1221260   2.7113820  75.7471370  46.9743650
   2.3713870  76.2246600  47.7310700   1.9491140  75.2936490  46.6144750
   6.9231590  76.8656960  41.0056200   7.0444410  76.8243440  41.9542020
   6.5380100  77.7281110  40.8502930  10.8859960  74.6424360  49.0219890
  10.9032700  75.0933010  49.8661740  10.6375540  73.7430000  49.2353330
   5.9353090  79.1758100  40.4039500   5.3669990  78.7276350  39.7775410
   6.6442090  79.5350880  39.8704650  14.3130710  72.0556540  54.8606270
  14.6376480  71.3246200  55.3864250  14.3487220  71.7370180  53.9587260
   7.1619410  79.9246660  49.7614850   7.5289540  79.4505230  50.5076190
   6.9724470  80.7988230  50.1023190   4.9518780  78.9655300  52.0799060
   4.6475850  79.8447280  52.3049420   5.9065240  79.0255090  52.1156500
   3.4800570  83.1716290  42.6765910   2.7062830  82.6313910  42.5164630
   4.2095200  82.6522900  42.3383670  14.2388550  82.1681650  48.4692300
  14.9587670  82.6636940  48.0788410  14.0370370  81.4899540  47.8246170
   9.6998490  73.5619610  42.6121690   8.8863100  73.0632780  42.5367000
   9.5060440  74.4017860  42.1958040   9.6207350  82.2390710  54.3561300
   9.5544660  81.3186380  54.1018890   8.9912490  82.3366150  55.0705940
  12.4146880  77.9339260  40.9083850  13.3026500  78.2456490  40.7335190
  12.3851970  77.0611510  40.5164430   3.5237970  82.8396670  46.3144720
   4.0416640  82.0364930  46.2601610   3.0721990  82.7775810  47.1561550
   4.2095630  80.2642280  56.1109970   3.9095770  80.4099460  55.2137790
   4.9806870  79.7047570  56.0183360  14.6861150  79.2451100  40.3763710
  14.6024870  79.6765320  39.5260150  15.4055340  79.7049450  40.8090530
  15.7635290  81.7018620  53.4533680  15.0383480  82.2947400  53.2563070
  16.2910750  81.6942160  52.6547050  11.2934880  83.4278790  46.9517530
  11.6458700  82.8306920  46.2918900  10.4097210  83.1023020  47.1225780
   6.6825370  81.1922510  43.9713300   7.1388150  82.0027760  44.1973490
   6.3313580  80.8745650  44.8031790   2.5837150  71.5360160  44.4435820
   2.4551780  71.5278060  45.3920740   1.7599170  71.8743250  44.0926830
  13.6862030  82.9081760  41.3036350  13.3983730  83.3694450  42.0914230
  14.4814200  82.4479530  41.5720570  11.0769860  75.7873590  51.6543970
  11.4450680  74.9668800  51.9823540  10.2168060  75.8475480  52.0699620
  14.4431890  74.7430530  42.4631530  13.8145050  74.8476200  41.7489760
  13.9483810  74.9627310  43.2525410   6.4115920  77.0216480  43.8789410
   5.7032070  77.4902820  44.3203020   6.6960400  76.3638490  44.5134600
   8.0371850  78.4413180  51.8781940   8.5357100  78.9159000  52.5433790
   8.1794800  77.5176700  52.0851970  10.4431350  73.7467140  45.3185200
  10.3199130  73.7653270  44.3694710  11.3915910  73.7946080  45.4383600
   4.6150940  75.3301560  41.2540120   5.4641470  75.7671710  41.1880310
   4.2482210  75.6421820  42.0812180  15.2438710  74.6581140  52.7210330
  14.7412310  75.3986540  53.0604140  16.0595370  75.0465140  52.4047120
  13.5360720  79.9014320  46.1671690  12.5950860  79.9164550  46.3419380
  13.8504790  79.1150280  46.6131990   3.5142360  81.5833920  39.7275650
   4.2805630  81.4715280  40.2901080   3.5917050  80.8871890  39.0752420
   2.2089120  79.0158990  40.4108540   2.2892710  78.0686500  40.5225940
   3.1008870  79.3465870  40.5169200   6.6383540  83.5588100  39.2011000
   6.5334180  82.9440450  39.9272380   6.4707760  83.0353990  38.4174010
   6.7897860  82.2444900  55.1800230   6.0243530  82.8129900  55.0954900
   6.9713820  81.9521110  54.2868460   9.8786270  82.6208130  39.8052990
   9.3296370  83.0677430  40.4495730  10.5005530  82.1157380  40.3290660
   1.7683000  78.9803500  56.5414780   1.8088340  78.6817370  57.4500010
   2.6228500  79.3811110  56.3822300   5.5461390  81.5799050  41.7018290
   5.9677810  81.4138920  42.5449680   5.6712230  80.7699280  41.2073430
   3.7088810  77.5595600  54.5089270   3.1785270  77.0686550  53.8812610
   4.3776880  77.9879800  53.9747200   8.0589030  80.6036660  38.9495390
   8.5794690  79.8885680  38.5836540   8.7057430  81.2422530  39.2495900
  12.6066870  82.0265060  54.2730460  13.0207890  82.1810140  55.1220880
  11.6717870  82.1520280  54.4356240  13.0789040  79.3661220  56.2769610
  13.6609810  78.6113540  56.1890090  13.2550810  79.8968660  55.5001090
   4.1961110  74.5257970  54.5886560   4.1017980  73.9078720  53.8637430
   3.6158500  75.2524260  54.3616470   6.9622550  73.0831210  51.6213950
   6.5139850  73.1055470  50.7759500   6.3287750  72.6850230  52.2184250
   7.3682100  81.9785540  52.2426390   7.7870210  82.8218270  52.0702630
   6.4490730  82.1157580  52.0133170   9.7046000  79.7101720  53.6264230
   9.8242210  79.1142860  54.3659070  10.5640000  79.7471410  53.2065530
  12.0433900  80.2638910  52.2026740  11.5169120  80.7881530  51.5991880
  12.3865240  80.8966300  52.8336470   4.4420290  77.6532280  38.6476450
   4.2409350  76.7899640  39.0089790   4.2712340  77.5665640  37.7098050
   6.4714770  76.2523070  54.8840050   7.0614460  75.9438920  55.5717870
   5.6535010  75.7802820  55.0399950  11.2908200  75.8688880  55.1173070
  10.6023720  75.2070420  55.0523060  12.0114220  75.4227150  55.5621530
  11.9208600  72.4640510  41.1763330  12.2010890  71.6208410  41.5322750
  11.1474330  72.6963620  41.6902080   3.2403090  74.7532900  38.6354330
   3.5428990  74.7600330  37.7273480   3.9797680  74.4030760  39.1321990
   6.4588020  73.6967520  39.6210530   6.1110020  73.0191510  39.0412980
   6.6600790  73.2357030  40.4353920  16.2989320  81.7017240  41.7867240
  17.0608230  82.2713890  41.8926930  16.3143690  81.1344440  42.5575550
  17.3049290  82.5567340  46.6309170  17.6758120  81.7734660  46.2245140
  17.9451220  83.2456440  46.4526470  16.3508490  81.9951610  38.9439760
  16.6257330  82.9030490  38.8158980  16.1619230  81.9314140  39.8801750
  12.7484100  75.0196460  40.2393390  13.1668980  74.8327440  39.3990050
  12.4420160  74.1675510  40.5496320  16.2473830  79.9320600  43.9369190
  15.8717430  79.1648530  43.5050480  15.5176950  80.3143300  44.4244120
  15.6373450  79.0792120  53.5708710  15.4059540  78.8504870  52.6706660
  15.8978000  79.9991670  53.5253600  14.0761520  74.3048550  56.3488410
  14.9531700  74.3131950  56.7322410  14.0882360  73.5679390  55.7380760
  15.5224790  78.1578090  47.2376430  16.0462270  77.6640740  46.6066600
  16.1084210  78.2928450  47.9824000  15.7014510  78.2417960  50.7595980
  14.7517220  78.2081500  50.8740970  15.8827520  79.1518070  50.5245750
  15.0124760  77.4151440  43.1768840  15.5083880  77.1822310  43.9617720
  14.8140830  76.5763280  42.7606480  16.4411920  76.0512390  45.7106520
  16.3311200  75.8968430  46.6488790  17.2019510  75.5233330  45.4681930
  14.7877640  71.9906520  52.1689520  15.4249860  72.6040660  52.5348710
  14.9352530  72.0267180  51.2238750  17.3302190  73.8820310  38.9512660
  18.2551500  73.7501490  38.7430950  17.3077980  73.9613130  39.9049110
  17.4040680  74.6530970  41.5769370  16.6092180  74.5876090  42.1062280
  17.6083960  75.5881610  41.5654720   8.1582120  73.1432710  55.0764620
   8.0971010  73.7354540  55.8260030   9.0982500  73.0358670  54.9314880
  10.7956680  72.8002770  54.7156910  11.4097090  73.1182060  54.0537990
  11.3406240  72.3151360  55.3352770  11.5364720  71.3634910  51.0426200
  10.6624560  71.6970020  50.8399130  11.4275470  70.8908090  51.8678070
  12.4436700  73.5705780  52.4267920  12.1150060  72.7557540  52.0469650
  13.3919000  73.5275590  52.3033610   9.2839540  72.2804750  49.9819110
   8.5011330  72.7550250  50.2615870   8.9902470  71.3759580  49.8732290
  13.8360610  72.9827850  48.0268200  14.2768700  72.9272950  47.1789800
  13.5668200  73.8985860  48.0978380  15.6999180  72.6143090  46.0377020
  15.6387580  71.6704310  45.8908040  16.4791210  72.7223180  46.5830480
   7.1693760  74.6991500  45.4935140   6.3568270  74.3248390  45.1531020
   7.6735400  73.9436580  45.7956330  11.6718740  71.3633950  46.7318210
  12.2748110  71.9354160  47.2066730  10.9311730  71.9273390  46.5092110
  14.8153340  71.7655510  42.0058490  15.0103970  72.6638960  42.2725920
  14.0283210  71.5342590  42.4991440   3.0005100  73.1116280  41.0434800
   3.5297860  72.3246080  40.9142750   3.6333420  73.7907470  41.2770330
   5.1942940  72.8491420  44.0980190   4.5645680  72.1478730  44.2650320
   4.6548080  73.6095550  43.8813350   5.3198500  72.1275400  56.5332680
   5.0382770  72.6309000  55.7693500   5.7018200  71.3297150  56.1674810
  11.9213960  71.5428980  57.1113150  11.8079410  71.8623590  58.0064670
  12.7383700  71.9441490  56.8150430  10.8272110  79.5621450  27.4747890
  10.7466160  78.6476060  27.2039600  10.4136530  80.0588520  26.7687600
   8.9590150  81.3400470  29.3557160   8.1832250  80.8600910  29.6455730
   9.6103080  80.6606120  29.1813320   2.9755980  81.6520280  30.2332920
   2.1440860  81.3968990  30.6329430   3.5836960  81.7231050  30.9690840
   8.3999140  84.0157660  29.3627320   8.3307420  83.0747600  29.2016450
   9.1619000  84.1059070  29.9349890   9.4304310  76.8228040  29.5896250
   9.8069130  75.9499920  29.4769920   9.3323820  77.1586740  28.6986690
   3.5609320  75.1953670  25.0513690   3.6676070  76.0957400  25.3582450
   2.6501680  75.1471640  24.7608340  13.2128430  74.3178480  26.5224590
  14.0338050  73.8275050  26.5650070  13.2462510  74.9076140  27.2756430
   5.4017050  78.1640040  29.3838870   5.9095270  78.6621010  30.0243890
   5.9330290  77.3875240  29.2078230  17.5027980  76.3345230  33.0868220
  16.7980150  76.7226940  32.5683330  17.7685900  77.0295520  33.6889150
   3.6853150  72.8038600  33.6502290   3.6871590  73.3210990  32.8448190
   2.8557460  72.3268780  33.6272220  10.0724240  82.9157910  25.1492190
   9.4541510  83.3807360  24.5854910  10.5847490  83.6085390  25.5661700
   4.9356000  82.4433780  31.8275790   4.6025380  83.0702700  32.4696860
   5.1122680  82.9695660  31.0477460  13.4489910  76.2578860  29.2952130
  12.7445480  76.5463750  29.8755240  13.8102070  77.0678970  28.9351690
   3.3668480  74.5148560  31.6572740   3.7085290  75.3590610  31.3626610
   2.4284290  74.6632300  31.7738080  16.5176830  75.7033650  29.6861340
  15.5701740  75.7372630  29.8176770  16.8426820  76.5172600  30.0710700
   7.0496370  72.0030830  27.9817330   7.3571350  71.4477720  27.2652830
   6.1197070  72.1375290  27.7990320  11.9996870  82.6227960  31.6007400
  12.4165660  82.4088070  30.7660860  12.7236690  82.8800750  32.1716020
   9.4377130  80.0679660  24.7177450   8.5106410  80.0017040  24.9465920
   9.5901950  81.0059790  24.6032690   9.4246210  76.3396660  21.7144610
   8.4849880  76.5010620  21.7997070   9.7429470  77.0582340  21.1680600
  15.9458970  81.0215180  31.6923640  15.1177600  81.0908270  31.2173770
  16.5409450  81.6069490  31.2239470  13.4674420  81.6299960  25.2212700
  12.8486840  81.2919510  24.5739000  13.4498870  80.9859720  25.9291890
  12.9100980  77.8084500  32.6378510  12.4972160  78.6338210  32.8918500
  12.1776930  77.2229540  32.4454870   5.0433770  80.5944400  27.4997180
   4.6390770  79.8821650  27.0043080   5.1296890  80.2497640  28.3885220
   3.7562390  77.3687610  31.2796220   4.3076980  77.4782950  30.5049470
   4.2705900  77.7425210  31.9951450  11.6439120  80.8686770  22.2285450
  12.0832400  80.0309200  22.0823270  12.3567540  81.5016170  22.3149590
   3.4305120  80.8906970  34.8901560   3.2912890  81.7629770  35.2588960
   2.5486480  80.5479780  34.7449500  15.2256260  72.1229580  20.5426490
  14.9128920  72.2156410  21.4425560  15.9868730  72.7010610  20.4923920
  16.4357550  76.8601080  36.5200630  15.8201820  77.3680750  35.9916090
  16.1153970  75.9599410  36.4626570   4.2102060  72.8324450  28.3827500
   3.7670210  73.6133990  28.0512020   4.7687050  73.1554340  29.0898440
   8.4971870  75.6992970  33.9862820   8.0351240  75.9075990  34.7982760
   8.0949980  74.8852320  33.6833490  13.4976380  76.9201920  35.1159480
  12.6469970  76.6207670  35.4368550  13.3378170  77.1643930  34.2043300
  10.5926090  78.4203670  37.2158270  10.9179500  77.5867420  36.8760500
  11.3806420  78.9432190  37.3636600   7.3260880  72.4535150  23.2633330
   6.7015060  72.4495020  23.9886640   7.2391000  71.5866110  22.8669300
   6.2477960  73.3771780  30.2417100   6.5450290  74.2834610  30.1609120
   6.7963520  72.8890560  29.6276670   4.0016280  77.9558020  26.1108750
   3.7757200  77.7395190  27.0155370   3.2208810  78.3886480  25.7654720
  11.2314040  77.9621390  24.7099400  10.6322930  78.6857190  24.5263020
  11.7793650  77.8998170  23.9275850   6.4415490  78.8543600  36.7769020
   6.3459090  77.9138330  36.6269420   7.2847470  79.0758670  36.3817090
   9.8378910  76.5984930  26.7402680  10.2308480  76.9157130  25.9271370
  10.1995760  75.7196810  26.8547200   8.1471080  75.3492240  37.9999540
   7.4569400  75.1564440  38.6345630   8.8903380  75.6326880  38.5323840
  10.4234050  79.1890680  30.8353460   9.6915170  79.6977490  31.1843560
  10.0258390  78.3720660  30.5342240   6.8611440  75.8644880  29.2405950
   6.8647500  75.4234830  28.3910490   7.7562560  76.1862210  29.3477770
   2.7113820  75.7471370  28.2000160   2.3713870  76.2246600  28.9567210
   1.9491140  75.2936490  27.8401260   6.9231590  76.8656960  22.2312710
   7.0444410  76.8243440  23.1798530   6.5380100  77.7281110  22.0759440
  10.8859960  74.6424360  30.2476400  10.9032700  75.0933010  31.0918250
  10.6375540  73.7430000  30.4609840   5.9353090  79.1758100  21.6296010
   5.3669990  78.7276350  21.0031920   6.6442090  79.5350880  21.0961160
  14.3130710  72.0556540  36.0862780  14.6376480  71.3246200  36.6120760
  14.3487220  71.7370180  35.1843770   7.1619410  79.9246660  30.9871360
   7.5289540  79.4505230  31.7332700   6.9724470  80.7988230  31.3279700
   4.9518780  78.9655300  33.3055570   4.6475850  79.8447280  33.5305930
   5.9065240  79.0255090  33.3413010   3.4800570  83.1716290  23.9022420
   2.7062830  82.6313910  23.7421140   4.2095200  82.6522900  23.5640180
  14.2388550  82.1681650  29.6948810  14.9587670  82.6636940  29.3044920
  14.0370370  81.4899540  29.0502680   9.6998490  73.5619610  23.8378200
   8.8863100  73.0632780  23.7623510   9.5060440  74.4017860  23.4214550
   9.6207350  82.2390710  35.5817810   9.5544660  81.3186380  35.3275400
   8.9912490  82.3366150  36.2962450  12.4146880  77.9339260  22.1340360
  13.3026500  78.2456490  21.9591700  12.3851970  77.0611510  21.7420940
   3.5237970  82.8396670  27.5401230   4.0416640  82.0364930  27.4858120
   3.0721990  82.7775810  28.3818060   4.2095630  80.2642280  37.3366480
   3.9095770  80.4099460  36.4394300   4.9806870  79.7047570  37.2439870
  14.6861150  79.2451100  21.6020220  14.6024870  79.6765320  20.7516660
  15.4055340  79.7049450  22.0347040  15.7635290  81.7018620  34.6790190
  15.0383480  82.2947400  34.4819580  16.2910750  81.6942160  33.8803560
  11.2934880  83.4278790  28.1774040  11.6458700  82.8306920  27.5175410
  10.4097210  83.1023020  28.3482290   6.6825370  81.1922510  25.1969810
   7.1388150  82.0027760  25.4230000   6.3313580  80.8745650  26.0288300
   2.5837150  71.5360160  25.6692330   2.4551780  71.5278060  26.6177250
   1.7599170  71.8743250  25.3183340  13.6862030  82.9081760  22.5292860
  13.3983730  83.3694450  23.3170740  14.4814200  82.4479530  22.7977080
  11.0769860  75.7873590  32.8800480  11.4450680  74.9668800  33.2080050
  10.2168060  75.8475480  33.2956130  14.4431890  74.7430530  23.6888040
  13.8145050  74.8476200  22.9746270  13.9483810  74.9627310  24.4781920
   6.4115920  77.0216480  25.1045920   5.7032070  77.4902820  25.5459530
   6.6960400  76.3638490  25.7391110   8.0371850  78.4413180  33.1038450
   8.5357100  78.9159000  33.7690300   8.1794800  77.5176700  33.3108480
  10.4431350  73.7467140  26.5441710  10.3199130  73.7653270  25.5951220
  11.3915910  73.7946080  26.6640110   4.6150940  75.3301560  22.4796630
   5.4641470  75.7671710  22.4136820   4.2482210  75.6421820  23.3068690
  15.2438710  74.6581140  33.9466840  14.7412310  75.3986540  34.2860650
  16.0595370  75.0465140  33.6303630  13.5360720  79.9014320  27.3928200
  12.5950860  79.9164550  27.5675890  13.8504790  79.1150280  27.8388500
   3.5142360  81.5833920  20.9532160   4.2805630  81.4715280  21.5157590
   3.5917050  80.8871890  20.3008930   2.2089120  79.0158990  21.6365050
   2.2892710  78.0686500  21.7482450   3.1008870  79.3465870  21.7425710
   6.6383540  83.5588100  20.4267510   6.5334180  82.9440450  21.1528890
   6.4707760  83.0353990  19.6430520   6.7897860  82.2444900  36.4056740
   6.0243530  82.8129900  36.3211410   6.9713820  81.9521110  35.5124970
   9.8786270  82.6208130  21.0309500   9.3296370  83.0677430  21.6752240
  10.5005530  82.1157380  21.5547170   1.7683000  78.9803500  37.7671290
   1.8088340  78.6817370  38.6756520   2.6228500  79.3811110  37.6078810
   5.5461390  81.5799050  22.9274800   5.9677810  81.4138920  23.7706190
   5.6712230  80.7699280  22.4329940   3.7088810  77.5595600  35.7345780
   3.1785270  77.0686550  35.1069120   4.3776880  77.9879800  35.2003710
   8.0589030  80.6036660  20.1751900   8.5794690  79.8885680  19.8093050
   8.7057430  81.2422530  20.4752410  12.6066870  82.0265060  35.4986970
  13.0207890  82.1810140  36.3477390  11.6717870  82.1520280  35.6612750
  13.0789040  79.3661220  37.5026120  13.6609810  78.6113540  37.4146600
  13.2550810  79.8968660  36.7257600   4.1961110  74.5257970  35.8143070
   4.1017980  73.9078720  35.0893940   3.6158500  75.2524260  35.5872980
   6.9622550  73.0831210  32.8470460   6.5139850  73.1055470  32.0016010
   6.3287750  72.6850230  33.4440760   7.3682100  81.9785540  33.4682900
   7.7870210  82.8218270  33.2959140   6.4490730  82.1157580  33.2389680
   9.7046000  79.7101720  34.8520740   9.8242210  79.1142860  35.5915580
  10.5640000  79.7471410  34.4322040  12.0433900  80.2638910  33.4283250
  11.5169120  80.7881530  32.8248390  12.3865240  80.8966300  34.0592980
   4.4420290  77.6532280  19.8732960   4.2409350  76.7899640  20.2346300
   4.2712340  77.5665640  18.9354560   6.4714770  76.2523070  36.1096560
   7.0614460  75.9438920  36.7974380   5.6535010  75.7802820  36.2656460
  11.2908200  75.8688880  36.3429580  10.6023720  75.2070420  36.2779570
  12.0114220  75.4227150  36.7878040  11.9208600  72.4640510  22.4019840
  12.2010890  71.6208410  22.7579260  11.1474330  72.6963620  22.9158590
   3.2403090  74.7532900  19.8610840   3.5428990  74.7600330  18.9529990
   3.9797680  74.4030760  20.3578500   6.4588020  73.6967520  20.8467040
   6.1110020  73.0191510  20.2669490   6.6600790  73.2357030  21.6610430
  16.2989320  81.7017240  23.0123750  17.0608230  82.2713890  23.1183440
  16.3143690  81.1344440  23.7832060  17.3049290  82.5567340  27.8565680
  17.6758120  81.7734660  27.4501650  17.9451220  83.2456440  27.6782980
  16.3508490  81.9951610  20.1696270  16.6257330  82.9030490  20.0415490
  16.1619230  81.9314140  21.1058260  12.7484100  75.0196460  21.4649900
  13.1668980  74.8327440  20.6246560  12.4420160  74.1675510  21.7752830
  16.2473830  79.9320600  25.1625700  15.8717430  79.1648530  24.7306990
  15.5176950  80.3143300  25.6500630  15.6373450  79.0792120  34.7965220
  15.4059540  78.8504870  33.8963170  15.8978000  79.9991670  34.7510110
  14.0761520  74.3048550  37.5744920  14.9531700  74.3131950  37.9578920
  14.0882360  73.5679390  36.9637270  15.5224790  78.1578090  28.4632940
  16.0462270  77.6640740  27.8323110  16.1084210  78.2928450  29.2080510
  15.7014510  78.2417960  31.9852490  14.7517220  78.2081500  32.0997480
  15.8827520  79.1518070  31.7502260  15.0124760  77.4151440  24.4025350
  15.5083880  77.1822310  25.1874230  14.8140830  76.5763280  23.9862990
  16.4411920  76.0512390  26.9363030  16.3311200  75.8968430  27.8745300
  17.2019510  75.5233330  26.6938440  14.7877640  71.9906520  33.3946030
  15.4249860  72.6040660  33.7605220  14.9352530  72.0267180  32.4495260
  17.3302190  73.8820310  20.1769170  18.2551500  73.7501490  19.9687460
  17.3077980  73.9613130  21.1305620  17.4040680  74.6530970  22.8025880
  16.6092180  74.5876090  23.3318790  17.6083960  75.5881610  22.7911230
   8.1582120  73.1432710  36.3021130   8.0971010  73.7354540  37.0516540
   9.0982500  73.0358670  36.1571390  10.7956680  72.8002770  35.9413420
  11.4097090  73.1182060  35.2794500  11.3406240  72.3151360  36.5609280
  11.5364720  71.3634910  32.2682710  10.6624560  71.6970020  32.0655640
  11.4275470  70.8908090  33.0934580  12.4436700  73.5705780  33.6524430
  12.1150060  72.7557540  33.2726160  13.3919000  73.5275590  33.5290120
   9.2839540  72.2804750  31.2075620   8.5011330  72.7550250  31.4872380
   8.9902470  71.3759580  31.0988800  13.8360610  72.9827850  29.2524710
  14.2768700  72.9272950  28.4046310  13.5668200  73.8985860  29.3234890
  15.6999180  72.6143090  27.2633530  15.6387580  71.6704310  27.1164550
  16.4791210  72.7223180  27.8086990   7.1693760  74.6991500  26.7191650
   6.3568270  74.3248390  26.3787530   7.6735400  73.9436580  27.0212840
  11.6718740  71.3633950  27.9574720  12.2748110  71.9354160  28.4323240
  10.9311730  71.9273390  27.7348620  14.8153340  71.7655510  23.2315000
  15.0103970  72.6638960  23.4982430  14.0283210  71.5342590  23.7247950
   3.0005100  73.1116280  22.2691310   3.5297860  72.3246080  22.1399260
   3.6333420  73.7907470  22.5026840   5.1942940  72.8491420  25.3236700
   4.5645680  72.1478730  25.4906830   4.6548080  73.6095550  25.1069860
   5.3198500  72.1275400  37.7589190   5.0382770  72.6309000  36.9950010
   5.7018200  71.3297150  37.3931320  11.9213960  71.5428980  38.3369660
  11.8079410  71.8623590  39.2321180  12.7383700  71.9441490  38.0406940
  10.8272110  79.5621450   8.7004400  10.7466160  78.6476060   8.4296110
  10.4136530  80.0588520   7.9944110   8.9590150  81.3400470  10.5813670
   8.1832250  80.8600910  10.8712240   9.6103080  80.6606120  10.4069830
   2.9755980  81.6520280  11.4589430   2.1440860  81.3968990  11.8585940
   3.5836960  81.7231050  12.1947350   8.3999140  84.0157660  10.5883830
   8.3307420  83.0747600  10.4272960   9.1619000  84.1059070  11.1606400
   9.4304310  76.8228040  10.8152760   9.8069130  75.9499920  10.7026430
   9.3323820  77.1586740   9.9243200   3.5609320  75.1953670   6.2770200
   3.6676070  76.0957400   6.5838960   2.6501680  75.1471640   5.9864850
  13.2128430  74.3178480   7.7481100  14.0338050  73.8275050   7.7906580
  13.2462510  74.9076140   8.5012940   5.4017050  78.1640040  10.6095380
   5.9095270  78.6621010  11.2500400   5.9330290  77.3875240  10.4334740
  17.5027980  76.3345230  14.3124730  16.7980150  76.7226940  13.7939840
  17.7685900  77.0295520  14.9145660   3.6853150  72.8038600  14.8758800
   3.6871590  73.3210990  14.0704700   2.8557460  72.3268780  14.8528730
  10.0724240  82.9157910   6.3748700   9.4541510  83.3807360   5.8111420
  10.5847490  83.6085390   6.7918210   4.9356000  82.4433780  13.0532300
   4.6025380  83.0702700  13.6953370   5.1122680  82.9695660  12.2733970
  13.4489910  76.2578860  10.5208640  12.7445480  76.5463750  11.1011750
  13.8102070  77.0678970  10.1608200   3.3668480  74.5148560  12.8829250
   3.7085290  75.3590610  12.5883120   2.4284290  74.6632300  12.9994590
  16.5176830  75.7033650  10.9117850  15.5701740  75.7372630  11.0433280
  16.8426820  76.5172600  11.2967210   7.0496370  72.0030830   9.2073840
   7.3571350  71.4477720   8.4909340   6.1197070  72.1375290   9.0246830
  11.9996870  82.6227960  12.8263910  12.4165660  82.4088070  11.9917370
  12.7236690  82.8800750  13.3972530   9.4377130  80.0679660   5.9433960
   8.5106410  80.0017040   6.1722430   9.5901950  81.0059790   5.8289200
   9.4246210  76.3396660   2.9401120   8.4849880  76.5010620   3.0253580
   9.7429470  77.0582340   2.3937110  15.9458970  81.0215180  12.9180150
  15.1177600  81.0908270  12.4430280  16.5409450  81.6069490  12.4495980
  13.4674420  81.6299960   6.4469210  12.8486840  81.2919510   5.7995510
  13.4498870  80.9859720   7.1548400  12.9100980  77.8084500  13.8635020
  12.4972160  78.6338210  14.1175010  12.1776930  77.2229540  13.6711380
   5.0433770  80.5944400   8.7253690   4.6390770  79.8821650   8.2299590
   5.1296890  80.2497640   9.6141730   3.7562390  77.3687610  12.5052730
   4.3076980  77.4782950  11.7305980   4.2705900  77.7425210  13.2207960
  11.6439120  80.8686770   3.4541960  12.0832400  80.0309200   3.3079780
  12.3567540  81.5016170   3.5406100   3.4305120  80.8906970  16.1158070
   3.2912890  81.7629770  16.4845470   2.5486480  80.5479780  15.9706010
  15.2256260  72.1229580   1.7683000  14.9128920  72.2156410   2.6682070
  15.9868730  72.7010610   1.7180430  16.4357550  76.8601080  17.7457140
  15.8201820  77.3680750  17.2172600  16.1153970  75.9599410  17.6883080
   4.2102060  72.8324450   9.6084010   3.7670210  73.6133990   9.2768530
   4.7687050  73.1554340  10.3154950   8.4971870  75.6992970  15.2119330
   8.0351240  75.9075990  16.0239270   8.0949980  74.8852320  14.9090000
  13.4976380  76.9201920  16.3415990  12.6469970  76.6207670  16.6625060
  13.3378170  77.1643930  15.4299810  10.5926090  78.4203670  18.4414780
  10.9179500  77.5867420  18.1017010  11.3806420  78.9432190  18.5893110
   7.3260880  72.4535150   4.4889840   6.7015060  72.4495020   5.2143150
   7.2391000  71.5866110   4.0925810   6.2477960  73.3771780  11.4673610
   6.5450290  74.2834610  11.3865630   6.7963520  72.8890560  10.8533180
   4.0016280  77.9558020   7.3365260   3.7757200  77.7395190   8.2411880
   3.2208810  78.3886480   6.9911230  11.2314040  77.9621390   5.9355910
  10.6322930  78.6857190   5.7519530  11.7793650  77.8998170   5.1532360
   6.4415490  78.8543600  18.0025530   6.3459090  77.9138330  17.8525930
   7.2847470  79.0758670  17.6073600   9.8378910  76.5984930   7.9659190
  10.2308480  76.9157130   7.1527880  10.1995760  75.7196810   8.0803710
   8.1471080  75.3492240  19.2256050   7.4569400  75.1564440  19.8602140
   8.8903380  75.6326880  19.7580350  10.4234050  79.1890680  12.0609970
   9.6915170  79.6977490  12.4100070  10.0258390  78.3720660  11.7598750
   6.8611440  75.8644880  10.4662460   6.8647500  75.4234830   9.6167000
   7.7562560  76.1862210  10.5734280   2.7113820  75.7471370   9.4256670
   2.3713870  76.2246600  10.1823720   1.9491140  75.2936490   9.0657770
   6.9231590  76.8656960   3.4569220   7.0444410  76.8243440   4.4055040
   6.5380100  77.7281110   3.3015950  10.8859960  74.6424360  11.4732910
  10.9032700  75.0933010  12.3174760  10.6375540  73.7430000  11.6866350
   5.9353090  79.1758100   2.8552520   5.3669990  78.7276350   2.2288430
   6.6442090  79.5350880   2.3217670  14.3130710  72.0556540  17.3119290
  14.6376480  71.3246200  17.8377270  14.3487220  71.7370180  16.4100280
   7.1619410  79.9246660  12.2127870   7.5289540  79.4505230  12.9589210
   6.9724470  80.7988230  12.5536210   4.9518780  78.9655300  14.5312080
   4.6475850  79.8447280  14.7562440   5.9065240  79.0255090  14.5669520
   3.4800570  83.1716290   5.1278930   2.7062830  82.6313910   4.9677650
   4.2095200  82.6522900   4.7896690  14.2388550  82.1681650  10.9205320
  14.9587670  82.6636940  10.5301430  14.0370370  81.4899540  10.2759190
   9.6998490  73.5619610   5.0634710   8.8863100  73.0632780   4.9880020
   9.5060440  74.4017860   4.6471060   9.6207350  82.2390710  16.8074320
   9.5544660  81.3186380  16.5531910   8.9912490  82.3366150  17.5218960
  12.4146880  77.9339260   3.3596870  13.3026500  78.2456490   3.1848210
  12.3851970  77.0611510   2.9677450   3.5237970  82.8396670   8.7657740
   4.0416640  82.0364930   8.7114630   3.0721990  82.7775810   9.6074570
   4.2095630  80.2642280  18.5622990   3.9095770  80.4099460  17.6650810
   4.9806870  79.7047570  18.4696380  14.6861150  79.2451100   2.8276730
  14.6024870  79.6765320   1.9773170  15.4055340  79.7049450   3.2603550
  15.7635290  81.7018620  15.9046700  15.0383480  82.2947400  15.7076090
  16.2910750  81.6942160  15.1060070  11.2934880  83.4278790   9.4030550
  11.6458700  82.8306920   8.7431920  10.4097210  83.1023020   9.5738800
   6.6825370  81.1922510   6.4226320   7.1388150  82.0027760   6.6486510
   6.3313580  80.8745650   7.2544810   2.5837150  71.5360160   6.8948840
   2.4551780  71.5278060   7.8433760   1.7599170  71.8743250   6.5439850
  13.6862030  82.9081760   3.7549370  13.3983730  83.3694450   4.5427250
  14.4814200  82.4479530   4.0233590  11.0769860  75.7873590  14.1056990
  11.4450680  74.9668800  14.4336560  10.2168060  75.8475480  14.5212640
  14.4431890  74.7430530   4.9144550  13.8145050  74.8476200   4.2002780
  13.9483810  74.9627310   5.7038430   6.4115920  77.0216480   6.3302430
   5.7032070  77.4902820   6.7716040   6.6960400  76.3638490   6.9647620
   8.0371850  78.4413180  14.3294960   8.5357100  78.9159000  14.9946810
   8.1794800  77.5176700  14.5364990  10.4431350  73.7467140   7.7698220
  10.3199130  73.7653270   6.8207730  11.3915910  73.7946080   7.8896620
   4.6150940  75.3301560   3.7053140   5.4641470  75.7671710   3.6393330
   4.2482210  75.6421820   4.5325200  15.2438710  74.6581140  15.1723350
  14.7412310  75.3986540  15.5117160  16.0595370  75.0465140  14.8560140
  13.5360720  79.9014320   8.6184710  12.5950860  79.9164550   8.7932400
  13.8504790  79.1150280   9.0645010   2.2089120  79.0158990   2.8621560
   2.2892710  78.0686500   2.9738960   3.1008870  79.3465870   2.9682220
   6.7897860  82.2444900  17.6313250   6.0243530  82.8129900  17.5467920
   6.9713820  81.9521110  16.7381480   9.8786270  82.6208130   2.2566010
   9.3296370  83.0677430   2.9008750  10.5005530  82.1157380   2.7803680
   1.7683000  78.9803500  18.9927800   1.8088340  78.6817370  19.9013030
   2.6228500  79.3811110  18.8335320   5.5461390  81.5799050   4.1531310
   5.9677810  81.4138920   4.9962700   5.6712230  80.7699280   3.6586450
   3.7088810  77.5595600  16.9602290   3.1785270  77.0686550  16.3325630
   4.3776880  77.9879800  16.4260220  12.6066870  82.0265060  16.7243480
  13.0207890  82.1810140  17.5733900  11.6717870  82.1520280  16.8869260
  13.0789040  79.3661220  18.7282630  13.6609810  78.6113540  18.6403110
  13.2550810  79.8968660  17.9514110   4.1961110  74.5257970  17.0399580
   4.1017980  73.9078720  16.3150450   3.6158500  75.2524260  16.8129490
   6.9622550  73.0831210  14.0726970   6.5139850  73.1055470  13.2272520
   6.3287750  72.6850230  14.6697270   7.3682100  81.9785540  14.6939410
   7.7870210  82.8218270  14.5215650   6.4490730  82.1157580  14.4646190
   9.7046000  79.7101720  16.0777250   9.8242210  79.1142860  16.8172090
  10.5640000  79.7471410  15.6578550  12.0433900  80.2638910  14.6539760
  11.5169120  80.7881530  14.0504900  12.3865240  80.8966300  15.2849490
   6.4714770  76.2523070  17.3353070   7.0614460  75.9438920  18.0230890
   5.6535010  75.7802820  17.4912970  11.2908200  75.8688880  17.5686090
  10.6023720  75.2070420  17.5036080  12.0114220  75.4227150  18.0134550
  11.9208600  72.4640510   3.6276350  12.2010890  71.6208410   3.9835770
  11.1474330  72.6963620   4.1415100  16.2989320  81.7017240   4.2380260
  17.0608230  82.2713890   4.3439950  16.3143690  81.1344440   5.0088570
  17.3049290  82.5567340   9.0822190  17.6758120  81.7734660   8.6758160
  17.9451220  83.2456440   8.9039490  12.7484100  75.0196460   2.6906410
  13.1668980  74.8327440   1.8503070  12.4420160  74.1675510   3.0009340
  16.2473830  79.9320600   6.3882210  15.8717430  79.1648530   5.9563500
  15.5176950  80.3143300   6.8757140  15.6373450  79.0792120  16.0221730
  15.4059540  78.8504870  15.1219680  15.8978000  79.9991670  15.9766620
  14.0761520  74.3048550  18.8001430  14.9531700  74.3131950  19.1835430
  14.0882360  73.5679390  18.1893780  15.5224790  78.1578090   9.6889450
  16.0462270  77.6640740   9.0579620  16.1084210  78.2928450  10.4337020
  15.7014510  78.2417960  13.2109000  14.7517220  78.2081500  13.3253990
  15.8827520  79.1518070  12.9758770  15.0124760  77.4151440   5.6281860
  15.5083880  77.1822310   6.4130740  14.8140830  76.5763280   5.2119500
  16.4411920  76.0512390   8.1619540  16.3311200  75.8968430   9.1001810
  17.2019510  75.5233330   7.9194950  14.7877640  71.9906520  14.6202540
  15.4249860  72.6040660  14.9861730  14.9352530  72.0267180  13.6751770
  17.4040680  74.6530970   4.0282390  16.6092180  74.5876090   4.5575300
  17.6083960  75.5881610   4.0167740   8.1582120  73.1432710  17.5277640
   8.0971010  73.7354540  18.2773050   9.0982500  73.0358670  17.3827900
  10.7956680  72.8002770  17.1669930  11.4097090  73.1182060  16.5051010
  11.3406240  72.3151360  17.7865790  11.5364720  71.3634910  13.4939220
  10.6624560  71.6970020  13.2912150  11.4275470  70.8908090  14.3191090
  12.4436700  73.5705780  14.8780940  12.1150060  72.7557540  14.4982670
  13.3919000  73.5275590  14.7546630   9.2839540  72.2804750  12.4332130
   8.5011330  72.7550250  12.7128890   8.9902470  71.3759580  12.3245310
  13.8360610  72.9827850  10.4781220  14.2768700  72.9272950   9.6302820
  13.5668200  73.8985860  10.5491400  15.6999180  72.6143090   8.4890040
  15.6387580  71.6704310   8.3421060  16.4791210  72.7223180   9.0343500
   7.1693760  74.6991500   7.9448160   6.3568270  74.3248390   7.6044040
   7.6735400  73.9436580   8.2469350  11.6718740  71.3633950   9.1831230
  12.2748110  71.9354160   9.6579750  10.9311730  71.9273390   8.9605130
  14.8153340  71.7655510   4.4571510  15.0103970  72.6638960   4.7238940
  14.0283210  71.5342590   4.9504460   3.0005100  73.1116280   3.4947820
   3.5297860  72.3246080   3.3655770   3.6333420  73.7907470   3.7283350
   5.1942940  72.8491420   6.5493210   4.5645680  72.1478730   6.7163340
   4.6548080  73.6095550   6.3326370   5.3198500  72.1275400  18.9845700
   5.0382770  72.6309000  18.2206520   5.7018200  71.3297150  18.6187830
  11.9213960  71.5428980  19.5626170  11.8079410  71.8623590  20.4577690
  12.7383700  71.9441490  19.2663450  10.8272110  60.7877960  83.7978360
  10.7466160  59.8732570  83.5270070  10.4136530  61.2845030  83.0918070
   8.9590150  62.5656980  85.6787630   8.1832250  62.0857420  85.9686200
   9.6103080  61.8862630  85.5043790   2.9755980  62.8776790  86.5563390
   2.1440860  62.6225500  86.9559900   3.5836960  62.9487560  87.2921310
  12.9797580  66.9717170  84.4586760  12.5179110  66.2004410  84.7873930
  13.7923130  66.9983240  84.9639210   2.9557240  66.9116880  86.7521410
   3.2585280  66.0214620  86.5731630   3.7000830  67.4687100  86.5243660
   9.2060890  69.2575180  84.0790750   8.5872330  69.7132680  83.5085190
  10.0612670  69.4126640  83.6780450   8.3999140  65.2414170  85.6857790
   8.3307420  64.3004110  85.5246920   9.1619000  65.3315580  86.2580360
   9.4304310  58.0484550  85.9126720   9.8069130  57.1756430  85.8000390
   9.3323820  58.3843250  85.0217160   3.5609320  56.4210180  81.3744160
   3.6676070  57.3213910  81.6812920   2.6501680  56.3728150  81.0838810
  13.2128430  55.5434990  82.8455060  14.0338050  55.0531560  82.8880540
  13.2462510  56.1332650  83.5986900   5.4017050  59.3896550  85.7069340
   5.9095270  59.8877520  86.3474360   5.9330290  58.6131750  85.5308700
  17.5027980  57.5601740  89.4098690  16.7980150  57.9483450  88.8913800
  17.7685900  58.2552030  90.0119620   3.6853150  54.0295110  89.9732760
   3.6871590  54.5467500  89.1678660   2.8557460  53.5525290  89.9502690
  10.0724240  64.1414420  81.4722660   9.4541510  64.6063870  80.9085380
  10.5847490  64.8341900  81.8892170   4.9356000  63.6690290  88.1506260
   4.6025380  64.2959210  88.7927330   5.1122680  64.1952170  87.3707930
  13.4489910  57.4835370  85.6182600  12.7445480  57.7720260  86.1985710
  13.8102070  58.2935480  85.2582160   3.3668480  55.7405070  87.9803210
   3.7085290  56.5847120  87.6857080   2.4284290  55.8888810  88.0968550
   4.1475100  65.6371090  89.9655440   4.7649100  66.3122170  89.6839890
   3.2868220  66.0459070  89.8742940  15.0652690  67.1010500  87.8810080
  14.3816210  67.7709610  87.8726750  15.6046980  67.2991150  87.1154940
  16.5176830  56.9290160  86.0091810  15.5701740  56.9629140  86.1407240
  16.8426820  57.7429110  86.3941170   7.0496370  53.2287340  84.3047800
   7.3571350  52.6734230  83.5883300   6.1197070  53.3631800  84.1220790
  12.6011430  68.9454630  86.5955260  12.6138590  68.5416920  85.7277520
  12.0486650  69.7201920  86.4916690  13.8956850  65.6670850  81.6845430
  13.7853180  64.7245180  81.8094850  13.8925100  66.0286490  82.5708190
  11.9996870  63.8484470  87.9237870  12.4165660  63.6344580  87.0891330
  12.7236690  64.1057260  88.4946490   9.4377130  61.2936170  81.0407920
   8.5106410  61.2273550  81.2696390   9.5901950  62.2316300  80.9263160
   9.4246210  57.5653170  78.0375080   8.4849880  57.7267130  78.1227540
   9.7429470  58.2838850  77.4911070  15.9458970  62.2471690  88.0154110
  15.1177600  62.3164780  87.5404240  16.5409450  62.8326000  87.5469940
  13.4674420  62.8556470  81.5443170  12.8486840  62.5176020  80.8969470
  13.4498870  62.2116230  82.2522360  12.9100980  59.0341010  88.9608980
  12.4972160  59.8594720  89.2148970  12.1776930  58.4486050  88.7685340
   5.0433770  61.8200910  83.8227650   4.6390770  61.1078160  83.3273550
   5.1296890  61.4754150  84.7115690   5.5115470  65.5068470  85.9866860
   5.2143760  64.9013940  85.3074640   6.4615290  65.5445780  85.8756220
   3.7562390  58.5944120  87.6026690   4.3076980  58.7039460  86.8279940
   4.2705900  58.9681720  88.3181920  13.6001080  69.0800340  89.6489960
  13.1231640  69.8872530  89.4562570  12.9162870  68.4278670  89.8016170
   4.6033900  65.2450160  92.6374660   3.7062430  65.4690130  92.8848060
   4.6286770  65.3685100  91.6886060  11.6439120  62.0943280  78.5515920
  12.0832400  61.2565710  78.4053740  12.3567540  62.7272680  78.6380060
   3.4305120  62.1163480  91.2132030   3.2912890  62.9886280  91.5819430
   2.5486480  61.7736290  91.0679970   9.7534500  67.0339350  82.5197160
  10.1930410  67.7763680  82.1052550   9.6921390  67.2765920  83.4436120
   5.2285470  68.0585180  93.4217180   5.2000900  68.4628130  92.5545610
   5.0650440  67.1295540  93.2588780  15.2256260  53.3486090  76.8656960
  14.9128920  53.4412920  77.7656030  15.9868730  53.9267120  76.8154390
  16.5833540  66.0325130  91.8781360  16.7096600  65.7937010  90.9598540
  16.6254920  65.2009670  92.3503440  10.4450280  69.7353130  90.4476170
  10.9594950  69.6461140  91.2498600   9.6019360  70.0812830  90.7404080
  12.4204680  70.0208470  79.8760170  12.2605820  69.7311410  80.7742000
  12.2551390  69.2448600  79.3405400   4.8993060  69.8007000  81.6531790
   4.7235540  68.8842540  81.4399590   4.0448800  70.1594290  81.8929590
  12.1230810  67.5296030  78.4358170  11.4295970  67.5273320  77.7760450
  12.8653670  67.1055350  78.0052340  11.6880740  69.1558740  82.5106660
  12.1437690  68.3748120  82.8245280  12.0273260  69.8665560  83.0547840
  16.4357550  58.0857590  92.8431100  15.8201820  58.5937260  92.3146560
  16.1153970  57.1855920  92.7857040   4.2102060  54.0580960  84.7057970
   3.7670210  54.8390500  84.3742490   4.7687050  54.3810850  85.4128910
   8.4971870  56.9249480  90.3093290   8.0351240  57.1332500  91.1213230
   8.0949980  56.1108830  90.0063960  13.4976380  58.1458430  91.4389950
  12.6469970  57.8464180  91.7599020  13.3378170  58.3900440  90.5273770
  10.5926090  59.6460180  93.5388740  10.9179500  58.8123930  93.1990970
  11.3806420  60.1688700  93.6867070   7.3260880  53.6791660  79.5863800
   6.7015060  53.6751530  80.3117110   7.2391000  52.8122620  79.1899770
   6.2477960  54.6028290  86.5647570   6.5450290  55.5091120  86.4839590
   6.7963520  54.1147070  85.9507140   4.0016280  59.1814530  82.4339220
   3.7757200  58.9651700  83.3385840   3.2208810  59.6142990  82.0885190
  11.2314040  59.1877900  81.0329870  10.6322930  59.9113700  80.8493490
  11.7793650  59.1254680  80.2506320   6.4415490  60.0800110  93.0999490
   6.3459090  59.1394840  92.9499890   7.2847470  60.3015180  92.7047560
   9.8378910  57.8241440  83.0633150  10.2308480  58.1413640  82.2501840
  10.1995760  56.9453320  83.1777670  10.4234050  60.4147190  87.1583930
   9.6915170  60.9234000  87.5074030  10.0258390  59.5977170  86.8572710
   6.8611440  57.0901390  85.5636420   6.8647500  56.6491340  84.7140960
   7.7562560  57.4118720  85.6708240   2.7113820  56.9727880  84.5230630
   2.3713870  57.4503110  85.2797680   1.9491140  56.5193000  84.1631730
   6.9231590  58.0913470  78.5543180   7.0444410  58.0499950  79.5029000
   6.5380100  58.9537620  78.3989910  10.8859960  55.8680870  86.5706870
  10.9032700  56.3189520  87.4148720  10.6375540  54.9686510  86.7840310
   5.9353090  60.4014610  77.9526480   5.3669990  59.9532860  77.3262390
   6.6442090  60.7607390  77.4191630  14.3130710  53.2813050  92.4093250
  14.6376480  52.5502710  92.9351230  14.3487220  52.9626690  91.5074240
   7.1619410  61.1503170  87.3101830   7.5289540  60.6761740  88.0563170
   6.9724470  62.0244740  87.6510170   4.9518780  60.1911810  89.6286040
   4.6475850  61.0703790  89.8536400   5.9065240  60.2511600  89.6643480
   3.4800570  64.3972800  80.2252890   2.7062830  63.8570420  80.0651610
   4.2095200  63.8779410  79.8870650  14.2388550  63.3938160  86.0179280
  14.9587670  63.8893450  85.6275390  14.0370370  62.7156050  85.3733150
   9.6998490  54.7876120  80.1608670   8.8863100  54.2889290  80.0853980
   9.5060440  55.6274370  79.7445020   9.6207350  63.4647220  91.9048280
   9.5544660  62.5442890  91.6505870   8.9912490  63.5622660  92.6192920
  12.4146880  59.1595770  78.4570830  13.3026500  59.4713000  78.2822170
  12.3851970  58.2868020  78.0651410   3.5237970  64.0653180  83.8631700
   4.0416640  63.2621440  83.8088590   3.0721990  64.0032320  84.7048530
   8.4107470  65.3319460  79.1359000   8.7523170  66.0761690  78.6402320
   7.5820180  65.6450580  79.4983830   4.2095630  61.4898790  93.6596950
   3.9095770  61.6355970  92.7624770   4.9806870  60.9304080  93.5670340
   9.5524080  66.2867790  91.6552080   9.5668620  65.3548750  91.4370990
   8.8449180  66.3727550  92.2941850  14.6861150  60.4707610  77.9250690
  14.6024870  60.9021830  77.0747130  15.4055340  60.9305960  78.3577510
  15.7635290  62.9275130  91.0020660  15.0383480  63.5203910  90.8050050
  16.2910750  62.9198670  90.2034030  15.7148400  67.3249870  80.6532820
  15.0724560  66.6705490  80.9276540  15.3279060  67.7304960  79.8773490
  11.2934880  64.6535300  84.5004510  11.6458700  64.0563430  83.8405880
  10.4097210  64.3279530  84.6712760   7.3798160  65.4132990  81.9074920
   8.0669290  65.9602200  82.2882510   6.5930580  65.9573720  81.9424530
   6.6825370  62.4179020  81.5200280   7.1388150  63.2284270  81.7460470
   6.3313580  62.1002160  82.3518770   8.9857980  67.9285360  88.7492580
   9.6300200  68.1344740  89.4266000   9.3487420  67.1673760  88.2963430
   2.5837150  52.7616670  81.9922800   2.4551780  52.7534570  82.9407720
   1.7599170  53.0999760  81.6413810  10.2590060  65.9317710  87.4670030
  10.9012290  65.2310870  87.5802200  10.7839410  66.7116150  87.2866920
  14.1045780  66.2166330  77.1909170  13.8783360  65.4996770  77.7833810
  13.7141980  65.9678770  76.3530920  12.0327680  66.7312610  90.6706090
  12.3683920  67.3179300  91.3484010  11.1128020  66.6005320  90.9003880
  13.6862030  64.1338270  78.8523330  13.3983730  64.5950960  79.6401210
  14.4814200  63.6736040  79.1207550   5.9030430  67.6264390  78.7827300
   5.8940530  68.3594080  78.1671810   4.9828790  67.3795970  78.8754260
  11.0769860  57.0130100  89.2030950  11.4450680  56.1925310  89.5310520
  10.2168060  57.0731990  89.6186600  14.4431890  55.9687040  80.0118510
  13.8145050  56.0732710  79.2976740  13.9483810  56.1883820  80.8012390
   8.8890030  67.6892630  77.4452490   8.9902010  67.4856620  76.5154470
   7.9891770  67.4350910  77.6500270   6.4115920  58.2472990  81.4276390
   5.7032070  58.7159330  81.8690000   6.6960400  57.5895000  82.0621580
   8.0371850  59.6669690  89.4268920   8.5357100  60.1415510  90.0920770
   8.1794800  58.7433210  89.6338950  10.4431350  54.9723650  82.8672180
  10.3199130  54.9909780  81.9181690  11.3915910  55.0202590  82.9870580
   7.5308140  70.2078950  82.1400160   7.7849640  70.1700340  81.2179530
   6.5820620  70.0812280  82.1328410   4.6150940  56.5558070  78.8027100
   5.4641470  56.9928220  78.7367290   4.2482210  56.8678330  79.6299160
  15.2438710  55.8837650  90.2697310  14.7412310  56.6243050  90.6091120
  16.0595370  56.2721650  89.9534100  13.5360720  61.1270830  83.7158670
  12.5950860  61.1421060  83.8906360  13.8504790  60.3406790  84.1618970
   3.5142360  62.8090430  77.2762630   4.2805630  62.6971790  77.8388060
   3.5917050  62.1128400  76.6239400   2.2089120  60.2415500  77.9595520
   2.2892710  59.2943010  78.0712920   3.1008870  60.5722380  78.0656180
  15.5386300  68.2979680  85.3912930  15.6633720  69.1210850  85.8636740
  16.4051860  68.0870410  85.0437080   3.0103830  70.3910890  85.0630060
   3.7466310  69.8426350  85.3338630   3.3944750  71.2566900  84.9236050
   6.1206140  69.5641200  76.8855630   6.9134750  69.8530030  76.4337420
   5.6010490  69.1333370  76.2068110  12.2827110  69.4117120  92.8100460
  13.2348860  69.3275140  92.7600700  12.1355330  70.0758830  93.4834250
  15.1736310  68.7911330  78.3092370  14.8877820  68.3776470  77.4946550
  14.9755860  69.7199040  78.1892890   6.6383540  64.7844610  76.7497980
   6.5334180  64.1696960  77.4759360   6.4707760  64.2610500  75.9660990
   6.7897860  63.4701410  92.7287210   6.0243530  64.0386410  92.6441880
   6.9713820  63.1777620  91.8355440   9.8786270  63.8464640  77.3539970
   9.3296370  64.2933940  77.9982710  10.5005530  63.3413890  77.8777640
  13.9321210  65.2006740  93.2862230  14.6730680  65.5382500  92.7829690
  13.1693890  65.3698800  92.7332000   5.5461390  62.8055560  79.2505270
   5.9677810  62.6395430  80.0936660   5.6712230  61.9955790  78.7560410
   3.7088810  58.7852110  92.0576250   3.1785270  58.2943060  91.4299590
   4.3776880  59.2136310  91.5234180   8.0589030  61.8293170  76.4982370
   8.5794690  61.1142190  76.1323520   8.7057430  62.4679040  76.7982880
  12.6066870  63.2521570  91.8217440  13.0207890  63.4066650  92.6707860
  11.6717870  63.3776790  91.9843220  13.0789040  60.5917730  93.8256590
  13.6609810  59.8370050  93.7377070  13.2550810  61.1225170  93.0488070
   4.1961110  55.7514480  92.1373540   4.1017980  55.1335230  91.4124410
   3.6158500  56.4780770  91.9103450   6.9622550  54.3087720  89.1700930
   6.5139850  54.3311980  88.3246480   6.3287750  53.9106740  89.7671230
   7.3682100  63.2042050  89.7913370   7.7870210  64.0474780  89.6189610
   6.4490730  63.3414090  89.5620150   9.7046000  60.9358230  91.1751210
   9.8242210  60.3399370  91.9146050  10.5640000  60.9727920  90.7552510
  12.0433900  61.4895420  89.7513720  11.5169120  62.0138040  89.1478860
  12.3865240  62.1222810  90.3823450   4.4420290  58.8788790  76.1963430
   4.2409350  58.0156150  76.5576770   4.2712340  58.7922150  75.2585030
   5.2189520  69.5095060  90.9071100   4.6810610  70.2341120  90.5879800
   5.4723480  69.0325400  90.1168440   6.4714770  57.4779580  92.4327030
   7.0614460  57.1695430  93.1204850   5.6535010  57.0059330  92.5886930
  11.2908200  57.0945390  92.6660050  10.6023720  56.4326930  92.6010040
  12.0114220  56.6483660  93.1108510  11.9208600  53.6897020  78.7250310
  12.2010890  52.8464920  79.0809730  11.1474330  53.9220130  79.2389060
   3.2403090  55.9789410  76.1841310   3.5428990  55.9856840  75.2760460
   3.9797680  55.6287270  76.6808970   8.0751730  70.7446270  91.1657750
   8.0010430  71.6481410  91.4730120   7.1730570  70.4258170  91.1379820
   6.4588020  54.9224030  77.1697510   6.1110020  54.2448020  76.5899960
   6.6600790  54.4613540  77.9840900   8.6237060  69.9104780  78.7884110
   9.5187850  70.2489750  78.8102870   8.6554690  69.1884190  78.1608390
   2.2633220  65.2831830  77.0171110   2.7008090  65.8261500  77.6728690
   2.7480950  64.4578780  77.0267450   4.0740940  66.4029870  82.1293340
   3.7736480  66.2794840  83.0297250   3.9678430  65.5438460  81.7209070
  15.6031410  68.4408450  91.4950310  15.0033400  68.5001010  90.7514230
  15.7325310  67.5013430  91.6247160  16.8432860  66.1826270  76.8320020
  16.0125820  66.2502920  77.3027250  17.0204690  67.0730390  76.5286880
  16.2989320  62.9273750  79.3354220  17.0608230  63.4970400  79.4413910
  16.3143690  62.3600950  80.1062530  17.3049290  63.7823850  84.1796150
  17.6758120  62.9991170  83.7732120  17.9451220  64.4712950  84.0013450
  14.2883050  65.1660430  89.5926470  13.4742890  65.5957590  89.8552260
  14.6957250  65.7778840  88.9795520  16.3508490  63.2208120  76.4926740
  16.6257330  64.1287000  76.3645960  16.1619230  63.1570650  77.4288730
  12.7484100  56.2452970  77.7880370  13.1668980  56.0583950  76.9477030
  12.4420160  55.3932020  78.0983300  16.2473830  61.1577110  81.4856170
  15.8717430  60.3905040  81.0537460  15.5176950  61.5399810  81.9731100
  15.6373450  60.3048630  91.1195690  15.4059540  60.0761380  90.2193640
  15.8978000  61.2248180  91.0740580  15.5224790  59.3834600  84.7863410
  16.0462270  58.8897250  84.1553580  16.1084210  59.5184960  85.5310980
  15.7014510  59.4674470  88.3082960  14.7517220  59.4338010  88.4227950
  15.8827520  60.3774580  88.0732730  15.0124760  58.6407950  80.7255820
  15.5083880  58.4078820  81.5104700  14.8140830  57.8019790  80.3093460
  16.4411920  57.2768900  83.2593500  16.3311200  57.1224940  84.1975770
  17.2019510  56.7489840  83.0168910  14.7877640  53.2163030  89.7176500
  15.4249860  53.8297170  90.0835690  14.9352530  53.2523690  88.7725730
  17.3302190  55.1076820  76.4999640  18.2551500  54.9758000  76.2917930
  17.3077980  55.1869640  77.4536090  17.4040680  55.8787480  79.1256350
  16.6092180  55.8132600  79.6549260  17.6083960  56.8138120  79.1141700
  14.3459100  69.9179030  83.1194740  14.9418170  69.5963600  82.4429160
  14.6037250  69.4450850  83.9108010   5.9527700  67.9056530  88.8695090
   5.7119060  68.1731090  87.9825610   6.8930340  68.0762260  88.9245950
   8.1582120  54.3689220  92.6251600   8.0971010  54.9611050  93.3747010
   9.0982500  54.2615180  92.4801860  10.7956680  54.0259280  92.2643890
  11.4097090  54.3438570  91.6024970  11.3406240  53.5407870  92.8839750
  17.2131860  69.9250910  89.6705730  16.7190140  70.3219780  88.9532860
  16.6045150  69.3000120  90.0643010   2.0909700  69.2959190  90.3883150
   1.4970020  69.1643890  91.1273190   2.0833540  68.4597330  89.9225250
  11.5364720  52.5891420  88.5913180  10.6624560  52.9226530  88.3886110
  11.4275470  52.1164600  89.4165050  12.4436700  54.7962290  89.9754900
  12.1150060  53.9814050  89.5956630  13.3919000  54.7532100  89.8520590
  14.8971310  70.5674330  86.9492470  14.4374280  71.3190140  86.5750490
  14.2683770  69.8480800  86.8907270   5.3267030  68.8762570  86.1240600
   5.8432050  68.2649930  85.5988860   5.9764410  69.3791350  86.6151610
   8.0662530  69.7671060  86.9509580   8.3540340  69.5125360  86.0742590
   8.5785750  69.2148420  87.5415150   9.2839540  53.5061260  87.5306090
   8.5011330  53.9806760  87.8102850   8.9902470  52.6016090  87.4219270
  13.8360610  54.2084360  85.5755180  14.2768700  54.1529460  84.7276780
  13.5668200  55.1242370  85.6465360  15.6999180  53.8399600  83.5864000
  15.6387580  52.8960820  83.4395020  16.4791210  53.9479690  84.1317460
   7.1693760  55.9248010  83.0422120   6.3568270  55.5504900  82.7018000
   7.6735400  55.1693090  83.3443310  11.6718740  52.5890460  84.2805190
  12.2748110  53.1610670  84.7553710  10.9311730  53.1529900  84.0579090
  14.8153340  52.9912020  79.5545470  15.0103970  53.8895470  79.8212900
  14.0283210  52.7599100  80.0478420   3.0005100  54.3372790  78.5921780
   3.5297860  53.5502590  78.4629730   3.6333420  55.0163980  78.8257310
   5.1942940  54.0747930  81.6467170   4.5645680  53.3735240  81.8137300
   4.6548080  54.8352060  81.4300330  16.3679950  70.2312730  81.3152030
  16.5432140  69.5450470  80.6712950  15.6701520  70.7559780  80.9228700
   4.2107600  70.6207570  78.8687340   4.9426420  70.3366850  78.3211230
   4.4701270  70.3820850  79.7586720   3.3722390  66.7372300  78.8733670
   2.7431270  67.2057400  79.4219500   3.4870220  65.8921520  79.3079860
  10.8272110  60.7877960  65.0234870  10.7466160  59.8732570  64.7526580
  10.4136530  61.2845030  64.3174580   8.9590150  62.5656980  66.9044140
   8.1832250  62.0857420  67.1942710   9.6103080  61.8862630  66.7300300
   2.9755980  62.8776790  67.7819900   2.1440860  62.6225500  68.1816410
   3.5836960  62.9487560  68.5177820  12.9797580  66.9717170  65.6843270
  12.5179110  66.2004410  66.0130440  13.7923130  66.9983240  66.1895720
   2.9557240  66.9116880  67.9777920   3.2585280  66.0214620  67.7988140
   3.7000830  67.4687100  67.7500170   9.2060890  69.2575180  65.3047260
   8.5872330  69.7132680  64.7341700  10.0612670  69.4126640  64.9036960
   8.3999140  65.2414170  66.9114300   8.3307420  64.3004110  66.7503430
   9.1619000  65.3315580  67.4836870   9.4304310  58.0484550  67.1383230
   9.8069130  57.1756430  67.0256900   9.3323820  58.3843250  66.2473670
   3.5609320  56.4210180  62.6000670   3.6676070  57.3213910  62.9069430
   2.6501680  56.3728150  62.3095320  13.2128430  55.5434990  64.0711570
  14.0338050  55.0531560  64.1137050  13.2462510  56.1332650  64.8243410
   5.4017050  59.3896550  66.9325850   5.9095270  59.8877520  67.5730870
   5.9330290  58.6131750  66.7565210  17.5027980  57.5601740  70.6355200
  16.7980150  57.9483450  70.1170310  17.7685900  58.2552030  71.2376130
   3.6853150  54.0295110  71.1989270   3.6871590  54.5467500  70.3935170
   2.8557460  53.5525290  71.1759200  10.0724240  64.1414420  62.6979170
   9.4541510  64.6063870  62.1341890  10.5847490  64.8341900  63.1148680
   4.9356000  63.6690290  69.3762770   4.6025380  64.2959210  70.0183840
   5.1122680  64.1952170  68.5964440  13.4489910  57.4835370  66.8439110
  12.7445480  57.7720260  67.4242220  13.8102070  58.2935480  66.4838670
   3.3668480  55.7405070  69.2059720   3.7085290  56.5847120  68.9113590
   2.4284290  55.8888810  69.3225060   4.1475100  65.6371090  71.1911950
   4.7649100  66.3122170  70.9096400   3.2868220  66.0459070  71.0999450
  15.0652690  67.1010500  69.1066590  14.3816210  67.7709610  69.0983260
  15.6046980  67.2991150  68.3411450  16.5176830  56.9290160  67.2348320
  15.5701740  56.9629140  67.3663750  16.8426820  57.7429110  67.6197680
   7.0496370  53.2287340  65.5304310   7.3571350  52.6734230  64.8139810
   6.1197070  53.3631800  65.3477300  12.6011430  68.9454630  67.8211770
  12.6138590  68.5416920  66.9534030  12.0486650  69.7201920  67.7173200
  13.8956850  65.6670850  62.9101940  13.7853180  64.7245180  63.0351360
  13.8925100  66.0286490  63.7964700  11.9996870  63.8484470  69.1494380
  12.4165660  63.6344580  68.3147840  12.7236690  64.1057260  69.7203000
   9.4377130  61.2936170  62.2664430   8.5106410  61.2273550  62.4952900
   9.5901950  62.2316300  62.1519670   9.4246210  57.5653170  59.2631590
   8.4849880  57.7267130  59.3484050   9.7429470  58.2838850  58.7167580
  15.9458970  62.2471690  69.2410620  15.1177600  62.3164780  68.7660750
  16.5409450  62.8326000  68.7726450  13.4674420  62.8556470  62.7699680
  12.8486840  62.5176020  62.1225980  13.4498870  62.2116230  63.4778870
  12.9100980  59.0341010  70.1865490  12.4972160  59.8594720  70.4405480
  12.1776930  58.4486050  69.9941850   5.0433770  61.8200910  65.0484160
   4.6390770  61.1078160  64.5530060   5.1296890  61.4754150  65.9372200
   5.5115470  65.5068470  67.2123370   5.2143760  64.9013940  66.5331150
   6.4615290  65.5445780  67.1012730   3.7562390  58.5944120  68.8283200
   4.3076980  58.7039460  68.0536450   4.2705900  58.9681720  69.5438430
  13.6001080  69.0800340  70.8746470  13.1231640  69.8872530  70.6819080
  12.9162870  68.4278670  71.0272680   4.6033900  65.2450160  73.8631170
   3.7062430  65.4690130  74.1104570   4.6286770  65.3685100  72.9142570
  11.6439120  62.0943280  59.7772430  12.0832400  61.2565710  59.6310250
  12.3567540  62.7272680  59.8636570   3.4305120  62.1163480  72.4388540
   3.2912890  62.9886280  72.8075940   2.5486480  61.7736290  72.2936480
   9.7534500  67.0339350  63.7453670  10.1930410  67.7763680  63.3309060
   9.6921390  67.2765920  64.6692630   5.2285470  68.0585180  74.6473690
   5.2000900  68.4628130  73.7802120   5.0650440  67.1295540  74.4845290
  15.2256260  53.3486090  58.0913470  14.9128920  53.4412920  58.9912540
  15.9868730  53.9267120  58.0410900  17.1800290  68.8412280  75.9437860
  17.6560010  69.3195170  76.6226940  17.8007450  68.7729770  75.2183360
  16.5833540  66.0325130  73.1037870  16.7096600  65.7937010  72.1855050
  16.6254920  65.2009670  73.5759950  10.4450280  69.7353130  71.6732680
  10.9594950  69.6461140  72.4755110   9.6019360  70.0812830  71.9660590
  12.4204680  70.0208470  61.1016680  12.2605820  69.7311410  61.9998510
  12.2551390  69.2448600  60.5661910   4.8993060  69.8007000  62.8788300
   4.7235540  68.8842540  62.6656100   4.0448800  70.1594290  63.1186100
  12.1230810  67.5296030  59.6614680  11.4295970  67.5273320  59.0016960
  12.8653670  67.1055350  59.2308850  11.6880740  69.1558740  63.7363170
  12.1437690  68.3748120  64.0501790  12.0273260  69.8665560  64.2804350
  16.4357550  58.0857590  74.0687610  15.8201820  58.5937260  73.5403070
  16.1153970  57.1855920  74.0113550   4.2102060  54.0580960  65.9314480
   3.7670210  54.8390500  65.5999000   4.7687050  54.3810850  66.6385420
   8.4971870  56.9249480  71.5349800   8.0351240  57.1332500  72.3469740
   8.0949980  56.1108830  71.2320470  13.4976380  58.1458430  72.6646460
  12.6469970  57.8464180  72.9855530  13.3378170  58.3900440  71.7530280
  10.5926090  59.6460180  74.7645250  10.9179500  58.8123930  74.4247480
  11.3806420  60.1688700  74.9123580   7.3260880  53.6791660  60.8120310
   6.7015060  53.6751530  61.5373620   7.2391000  52.8122620  60.4156280
   6.2477960  54.6028290  67.7904080   6.5450290  55.5091120  67.7096100
   6.7963520  54.1147070  67.1763650   4.0016280  59.1814530  63.6595730
   3.7757200  58.9651700  64.5642350   3.2208810  59.6142990  63.3141700
  11.2314040  59.1877900  62.2586380  10.6322930  59.9113700  62.0750000
  11.7793650  59.1254680  61.4762830   6.4415490  60.0800110  74.3256000
   6.3459090  59.1394840  74.1756400   7.2847470  60.3015180  73.9304070
   9.8378910  57.8241440  64.2889660  10.2308480  58.1413640  63.4758350
  10.1995760  56.9453320  64.4034180   8.1471080  56.5748750  75.5486520
   7.4569400  56.3820950  76.1832610   8.8903380  56.8583390  76.0810820
  10.4234050  60.4147190  68.3840440   9.6915170  60.9234000  68.7330540
  10.0258390  59.5977170  68.0829220   6.8611440  57.0901390  66.7892930
   6.8647500  56.6491340  65.9397470   7.7562560  57.4118720  66.8964750
   2.7113820  56.9727880  65.7487140   2.3713870  57.4503110  66.5054190
   1.9491140  56.5193000  65.3888240   6.9231590  58.0913470  59.7799690
   7.0444410  58.0499950  60.7285510   6.5380100  58.9537620  59.6246420
  10.8859960  55.8680870  67.7963380  10.9032700  56.3189520  68.6405230
  10.6375540  54.9686510  68.0096820   5.9353090  60.4014610  59.1782990
   5.3669990  59.9532860  58.5518900   6.6442090  60.7607390  58.6448140
  14.3130710  53.2813050  73.6349760  14.6376480  52.5502710  74.1607740
  14.3487220  52.9626690  72.7330750   7.1619410  61.1503170  68.5358340
   7.5289540  60.6761740  69.2819680   6.9724470  62.0244740  68.8766680
   4.9518780  60.1911810  70.8542550   4.6475850  61.0703790  71.0792910
   5.9065240  60.2511600  70.8899990   3.4800570  64.3972800  61.4509400
   2.7062830  63.8570420  61.2908120   4.2095200  63.8779410  61.1127160
  14.2388550  63.3938160  67.2435790  14.9587670  63.8893450  66.8531900
  14.0370370  62.7156050  66.5989660   9.6998490  54.7876120  61.3865180
   8.8863100  54.2889290  61.3110490   9.5060440  55.6274370  60.9701530
   9.6207350  63.4647220  73.1304790   9.5544660  62.5442890  72.8762380
   8.9912490  63.5622660  73.8449430  12.4146880  59.1595770  59.6827340
  13.3026500  59.4713000  59.5078680  12.3851970  58.2868020  59.2907920
   3.5237970  64.0653180  65.0888210   4.0416640  63.2621440  65.0345100
   3.0721990  64.0032320  65.9305040   8.4107470  65.3319460  60.3615510
   8.7523170  66.0761690  59.8658830   7.5820180  65.6450580  60.7240340
   4.2095630  61.4898790  74.8853460   3.9095770  61.6355970  73.9881280
   4.9806870  60.9304080  74.7926850   9.5524080  66.2867790  72.8808590
   9.5668620  65.3548750  72.6627500   8.8449180  66.3727550  73.5198360
  14.6861150  60.4707610  59.1507200  14.6024870  60.9021830  58.3003640
  15.4055340  60.9305960  59.5834020  15.7635290  62.9275130  72.2277170
  15.0383480  63.5203910  72.0306560  16.2910750  62.9198670  71.4290540
  15.7148400  67.3249870  61.8789330  15.0724560  66.6705490  62.1533050
  15.3279060  67.7304960  61.1030000  11.2934880  64.6535300  65.7261020
  11.6458700  64.0563430  65.0662390  10.4097210  64.3279530  65.8969270
   7.3798160  65.4132990  63.1331430   8.0669290  65.9602200  63.5139020
   6.5930580  65.9573720  63.1681040   6.6825370  62.4179020  62.7456790
   7.1388150  63.2284270  62.9716980   6.3313580  62.1002160  63.5775280
   8.9857980  67.9285360  69.9749090   9.6300200  68.1344740  70.6522510
   9.3487420  67.1673760  69.5219940   2.5837150  52.7616670  63.2179310
   2.4551780  52.7534570  64.1664230   1.7599170  53.0999760  62.8670320
  10.2590060  65.9317710  68.6926540  10.9012290  65.2310870  68.8058710
  10.7839410  66.7116150  68.5123430  14.1045780  66.2166330  58.4165680
  13.8783360  65.4996770  59.0090320  13.7141980  65.9678770  57.5787430
  12.0327680  66.7312610  71.8962600  12.3683920  67.3179300  72.5740520
  11.1128020  66.6005320  72.1260390  13.6862030  64.1338270  60.0779840
  13.3983730  64.5950960  60.8657720  14.4814200  63.6736040  60.3464060
   7.8616260  66.7803940  75.0650660   7.5413130  66.0613180  75.6096350
   7.1874620  67.4559010  75.1386720   5.9030430  67.6264390  60.0083810
   5.8940530  68.3594080  59.3928320   4.9828790  67.3795970  60.1010770
  11.0769860  57.0130100  70.4287460  11.4450680  56.1925310  70.7567030
  10.2168060  57.0731990  70.8443110  14.4431890  55.9687040  61.2375020
  13.8145050  56.0732710  60.5233250  13.9483810  56.1883820  62.0268900
   8.8890030  67.6892630  58.6709000   8.9902010  67.4856620  57.7410980
   7.9891770  67.4350910  58.8756780   6.4115920  58.2472990  62.6532900
   5.7032070  58.7159330  63.0946510   6.6960400  57.5895000  63.2878090
   8.0371850  59.6669690  70.6525430   8.5357100  60.1415510  71.3177280
   8.1794800  58.7433210  70.8595460  10.4431350  54.9723650  64.0928690
  10.3199130  54.9909780  63.1438200  11.3915910  55.0202590  64.2127090
   7.5308140  70.2078950  63.3656670   7.7849640  70.1700340  62.4436040
   6.5820620  70.0812280  63.3584920   4.6150940  56.5558070  60.0283610
   5.4641470  56.9928220  59.9623800   4.2482210  56.8678330  60.8555670
  15.2438710  55.8837650  71.4953820  14.7412310  56.6243050  71.8347630
  16.0595370  56.2721650  71.1790610  13.5360720  61.1270830  64.9415180
  12.5950860  61.1421060  65.1162870  13.8504790  60.3406790  65.3875480
   3.5142360  62.8090430  58.5019140   4.2805630  62.6971790  59.0644570
   3.5917050  62.1128400  57.8495910   2.2089120  60.2415500  59.1852030
   2.2892710  59.2943010  59.2969430   3.1008870  60.5722380  59.2912690
  15.5386300  68.2979680  66.6169440  15.6633720  69.1210850  67.0893250
  16.4051860  68.0870410  66.2693590   3.0103830  70.3910890  66.2886570
   3.7466310  69.8426350  66.5595140   3.3944750  71.2566900  66.1492560
   2.0162110  69.5756960  75.4772150   2.8174840  69.8969010  75.8907550
   1.5013930  69.2152540  76.1992060   6.1206140  69.5641200  58.1112140
   6.9134750  69.8530030  57.6593930   5.6010490  69.1333370  57.4324620
  10.8526740  65.6836830  75.4247560  10.2464900  65.7068430  74.6843310
  10.5480850  64.9519870  75.9614810  12.2827110  69.4117120  74.0356970
  13.2348860  69.3275140  73.9857210  12.1355330  70.0758830  74.7090760
  15.1736310  68.7911330  59.5348880  14.8877820  68.3776470  58.7203060
  14.9755860  69.7199040  59.4149400   6.6383540  64.7844610  57.9754490
   6.5334180  64.1696960  58.7015870   6.4707760  64.2610500  57.1917500
   6.7897860  63.4701410  73.9543720   6.0243530  64.0386410  73.8698390
   6.9713820  63.1777620  73.0611950   9.8786270  63.8464640  58.5796480
   9.3296370  64.2933940  59.2239220  10.5005530  63.3413890  59.1034150
  13.9321210  65.2006740  74.5118740  14.6730680  65.5382500  74.0086200
  13.1693890  65.3698800  73.9588510   1.7683000  60.2060010  75.3158270
   1.8088340  59.9073880  76.2243500   2.6228500  60.6067620  75.1565790
   5.5461390  62.8055560  60.4761780   5.9677810  62.6395430  61.3193170
   5.6712230  61.9955790  59.9816920   3.7088810  58.7852110  73.2832760
   3.1785270  58.2943060  72.6556100   4.3776880  59.2136310  72.7490690
   8.0589030  61.8293170  57.7238880   8.5794690  61.1142190  57.3580030
   8.7057430  62.4679040  58.0239390  12.6066870  63.2521570  73.0473950
  13.0207890  63.4066650  73.8964370  11.6717870  63.3776790  73.2099730
  13.0789040  60.5917730  75.0513100  13.6609810  59.8370050  74.9633580
  13.2550810  61.1225170  74.2744580   4.1961110  55.7514480  73.3630050
   4.1017980  55.1335230  72.6380920   3.6158500  56.4780770  73.1359960
   6.9622550  54.3087720  70.3957440   6.5139850  54.3311980  69.5502990
   6.3287750  53.9106740  70.9927740   7.3682100  63.2042050  71.0169880
   7.7870210  64.0474780  70.8446120   6.4490730  63.3414090  70.7876660
   9.7046000  60.9358230  72.4007720   9.8242210  60.3399370  73.1402560
  10.5640000  60.9727920  71.9809020  12.0433900  61.4895420  70.9770230
  11.5169120  62.0138040  70.3735370  12.3865240  62.1222810  71.6079960
   4.4420290  58.8788790  57.4219940   4.2409350  58.0156150  57.7833280
   4.2712340  58.7922150  56.4841540   5.2189520  69.5095060  72.1327610
   4.6810610  70.2341120  71.8136310   5.4723480  69.0325400  71.3424950
   6.4714770  57.4779580  73.6583540   7.0614460  57.1695430  74.3461360
   5.6535010  57.0059330  73.8143440  11.2908200  57.0945390  73.8916560
  10.6023720  56.4326930  73.8266550  12.0114220  56.6483660  74.3365020
  11.9208600  53.6897020  59.9506820  12.2010890  52.8464920  60.3066240
  11.1474330  53.9220130  60.4645570   3.2403090  55.9789410  57.4097820
   3.5428990  55.9856840  56.5016970   3.9797680  55.6287270  57.9065480
   8.0751730  70.7446270  72.3914260   8.0010430  71.6481410  72.6986630
   7.1730570  70.4258170  72.3636330   6.4588020  54.9224030  58.3954020
   6.1110020  54.2448020  57.8156470   6.6600790  54.4613540  59.2097410
   8.6237060  69.9104780  60.0140620   9.5187850  70.2489750  60.0359380
   8.6554690  69.1884190  59.3864900   2.2633220  65.2831830  58.2427620
   2.7008090  65.8261500  58.8985200   2.7480950  64.4578780  58.2523960
   4.0740940  66.4029870  63.3549850   3.7736480  66.2794840  64.2553760
   3.9678430  65.5438460  62.9465580  15.6031410  68.4408450  72.7206820
  15.0033400  68.5001010  71.9770740  15.7325310  67.5013430  72.8503670
  16.8432860  66.1826270  58.0576530  16.0125820  66.2502920  58.5283760
  17.0204690  67.0730390  57.7543390  16.2989320  62.9273750  60.5610730
  17.0608230  63.4970400  60.6670420  16.3143690  62.3600950  61.3319040
  17.3049290  63.7823850  65.4052660  17.6758120  62.9991170  64.9988630
  17.9451220  64.4712950  65.2269960  14.2883050  65.1660430  70.8182980
  13.4742890  65.5957590  71.0808770  14.6957250  65.7778840  70.2052030
  16.3508490  63.2208120  57.7183250  16.6257330  64.1287000  57.5902470
  16.1619230  63.1570650  58.6545240  12.7484100  56.2452970  59.0136880
  13.1668980  56.0583950  58.1733540  12.4420160  55.3932020  59.3239810
  16.2473830  61.1577110  62.7112680  15.8717430  60.3905040  62.2793970
  15.5176950  61.5399810  63.1987610  15.6373450  60.3048630  72.3452200
  15.4059540  60.0761380  71.4450150  15.8978000  61.2248180  72.2997090
  14.0761520  55.5305060  75.1231900  14.9531700  55.5388460  75.5065900
  14.0882360  54.7935900  74.5124250  15.5224790  59.3834600  66.0119920
  16.0462270  58.8897250  65.3810090  16.1084210  59.5184960  66.7567490
  15.7014510  59.4674470  69.5339470  14.7517220  59.4338010  69.6484460
  15.8827520  60.3774580  69.2989240  15.0124760  58.6407950  61.9512330
  15.5083880  58.4078820  62.7361210  14.8140830  57.8019790  61.5349970
  16.4411920  57.2768900  64.4850010  16.3311200  57.1224940  65.4232280
  17.2019510  56.7489840  64.2425420  14.7877640  53.2163030  70.9433010
  15.4249860  53.8297170  71.3092200  14.9352530  53.2523690  69.9982240
  14.3459100  69.9179030  64.3451250  14.9418170  69.5963600  63.6685670
  14.6037250  69.4450850  65.1364520   2.2521670  66.3496940  74.4941880
   2.2091300  65.9789850  75.3756340   2.3832680  67.2874510  74.6343700
   5.9527700  67.9056530  70.0951600   5.7119060  68.1731090  69.2082120
   6.8930340  68.0762260  70.1502460   8.1582120  54.3689220  73.8508110
   8.0971010  54.9611050  74.6003520   9.0982500  54.2615180  73.7058370
  10.7956680  54.0259280  73.4900400  11.4097090  54.3438570  72.8281480
  11.3406240  53.5407870  74.1096260  17.2131860  69.9250910  70.8962240
  16.7190140  70.3219780  70.1789370  16.6045150  69.3000120  71.2899520
   2.0909700  69.2959190  71.6139660   1.4970020  69.1643890  72.3529700
   2.0833540  68.4597330  71.1481760  11.5364720  52.5891420  69.8169690
  10.6624560  52.9226530  69.6142620  11.4275470  52.1164600  70.6421560
  12.4436700  54.7962290  71.2011410  12.1150060  53.9814050  70.8213140
  13.3919000  54.7532100  71.0777100  14.8971310  70.5674330  68.1748980
  14.4374280  71.3190140  67.8007000  14.2683770  69.8480800  68.1163780
   5.3267030  68.8762570  67.3497110   5.8432050  68.2649930  66.8245370
   5.9764410  69.3791350  67.8408120   8.0662530  69.7671060  68.1766090
   8.3540340  69.5125360  67.2999100   8.5785750  69.2148420  68.7671660
   9.2839540  53.5061260  68.7562600   8.5011330  53.9806760  69.0359360
   8.9902470  52.6016090  68.6475780  13.8360610  54.2084360  66.8011690
  14.2768700  54.1529460  65.9533290  13.5668200  55.1242370  66.8721870
   7.1693760  55.9248010  64.2678630   6.3568270  55.5504900  63.9274510
   7.6735400  55.1693090  64.5699820  11.6718740  52.5890460  65.5061700
  12.2748110  53.1610670  65.9810220  10.9311730  53.1529900  65.2835600
   3.0005100  54.3372790  59.8178290   3.5297860  53.5502590  59.6886240
   3.6333420  55.0163980  60.0513820   5.1942940  54.0747930  62.8723680
   4.5645680  53.3735240  63.0393810   4.6548080  54.8352060  62.6556840
   8.1334890  70.6887160  75.5434290   9.0602200  70.4531430  75.5870250
   8.1185320  71.5159160  75.0620320  16.3679950  70.2312730  62.5408540
  16.5432140  69.5450470  61.8969460  15.6701520  70.7559780  62.1485210
   5.3198500  53.3531910  75.3076170   5.0382770  53.8565510  74.5436990
   5.7018200  52.5553660  74.9418300   4.2107600  70.6207570  60.0943850
   4.9426420  70.3366850  59.5467740   4.4701270  70.3820850  60.9843230
   3.3722390  66.7372300  60.0990180   2.7431270  67.2057400  60.6476010
   3.4870220  65.8921520  60.5336370  11.9213960  52.7685490  75.8856640
  11.8079410  53.0880100  76.7808160  12.7383700  53.1698000  75.5893920
  14.7012450  69.9157020  75.3675330  15.4937770  69.4206250  75.1601290
  14.9945600  70.5947160  75.9750940  10.8272110  60.7877960  46.2491380
  10.7466160  59.8732570  45.9783090  10.4136530  61.2845030  45.5431090
   8.9590150  62.5656980  48.1300650   8.1832250  62.0857420  48.4199220
   9.6103080  61.8862630  47.9556810   2.9755980  62.8776790  49.0076410
   2.1440860  62.6225500  49.4072920   3.5836960  62.9487560  49.7434330
  12.9797580  66.9717170  46.9099780  12.5179110  66.2004410  47.2386950
  13.7923130  66.9983240  47.4152230   2.9557240  66.9116880  49.2034430
   3.2585280  66.0214620  49.0244650   3.7000830  67.4687100  48.9756680
   9.2060890  69.2575180  46.5303770   8.5872330  69.7132680  45.9598210
  10.0612670  69.4126640  46.1293470   8.3999140  65.2414170  48.1370810
   8.3307420  64.3004110  47.9759940   9.1619000  65.3315580  48.7093380
   9.4304310  58.0484550  48.3639740   9.8069130  57.1756430  48.2513410
   9.3323820  58.3843250  47.4730180   3.5609320  56.4210180  43.8257180
   3.6676070  57.3213910  44.1325940   2.6501680  56.3728150  43.5351830
  13.2128430  55.5434990  45.2968080  14.0338050  55.0531560  45.3393560
  13.2462510  56.1332650  46.0499920   5.4017050  59.3896550  48.1582360
   5.9095270  59.8877520  48.7987380   5.9330290  58.6131750  47.9821720
  17.5027980  57.5601740  51.8611710  16.7980150  57.9483450  51.3426820
  17.7685900  58.2552030  52.4632640   3.6853150  54.0295110  52.4245780
   3.6871590  54.5467500  51.6191680   2.8557460  53.5525290  52.4015710
  10.0724240  64.1414420  43.9235680   9.4541510  64.6063870  43.3598400
  10.5847490  64.8341900  44.3405190   4.9356000  63.6690290  50.6019280
   4.6025380  64.2959210  51.2440350   5.1122680  64.1952170  49.8220950
  13.4489910  57.4835370  48.0695620  12.7445480  57.7720260  48.6498730
  13.8102070  58.2935480  47.7095180   3.3668480  55.7405070  50.4316230
   3.7085290  56.5847120  50.1370100   2.4284290  55.8888810  50.5481570
   4.1475100  65.6371090  52.4168460   4.7649100  66.3122170  52.1352910
   3.2868220  66.0459070  52.3255960  15.0652690  67.1010500  50.3323100
  14.3816210  67.7709610  50.3239770  15.6046980  67.2991150  49.5667960
  16.5176830  56.9290160  48.4604830  15.5701740  56.9629140  48.5920260
  16.8426820  57.7429110  48.8454190   7.0496370  53.2287340  46.7560820
   7.3571350  52.6734230  46.0396320   6.1197070  53.3631800  46.5733810
  12.6011430  68.9454630  49.0468280  12.6138590  68.5416920  48.1790540
  12.0486650  69.7201920  48.9429710  13.8956850  65.6670850  44.1358450
  13.7853180  64.7245180  44.2607870  13.8925100  66.0286490  45.0221210
  11.9996870  63.8484470  50.3750890  12.4165660  63.6344580  49.5404350
  12.7236690  64.1057260  50.9459510   9.4377130  61.2936170  43.4920940
   8.5106410  61.2273550  43.7209410   9.5901950  62.2316300  43.3776180
   9.4246210  57.5653170  40.4888100   8.4849880  57.7267130  40.5740560
   9.7429470  58.2838850  39.9424090  15.9458970  62.2471690  50.4667130
  15.1177600  62.3164780  49.9917260  16.5409450  62.8326000  49.9982960
  13.4674420  62.8556470  43.9956190  12.8486840  62.5176020  43.3482490
  13.4498870  62.2116230  44.7035380  12.9100980  59.0341010  51.4122000
  12.4972160  59.8594720  51.6661990  12.1776930  58.4486050  51.2198360
   5.0433770  61.8200910  46.2740670   4.6390770  61.1078160  45.7786570
   5.1296890  61.4754150  47.1628710   5.5115470  65.5068470  48.4379880
   5.2143760  64.9013940  47.7587660   6.4615290  65.5445780  48.3269240
   3.7562390  58.5944120  50.0539710   4.3076980  58.7039460  49.2792960
   4.2705900  58.9681720  50.7694940  13.6001080  69.0800340  52.1002980
  13.1231640  69.8872530  51.9075590  12.9162870  68.4278670  52.2529190
   4.6033900  65.2450160  55.0887680   3.7062430  65.4690130  55.3361080
   4.6286770  65.3685100  54.1399080  11.6439120  62.0943280  41.0028940
  12.0832400  61.2565710  40.8566760  12.3567540  62.7272680  41.0893080
   3.4305120  62.1163480  53.6645050   3.2912890  62.9886280  54.0332450
   2.5486480  61.7736290  53.5192990   9.7534500  67.0339350  44.9710180
  10.1930410  67.7763680  44.5565570   9.6921390  67.2765920  45.8949140
   5.2285470  68.0585180  55.8730200   5.2000900  68.4628130  55.0058630
   5.0650440  67.1295540  55.7101800  15.2256260  53.3486090  39.3169980
  14.9128920  53.4412920  40.2169050  15.9868730  53.9267120  39.2667410
  17.1800290  68.8412280  57.1694370  17.6560010  69.3195170  57.8483450
  17.8007450  68.7729770  56.4439870  16.5833540  66.0325130  54.3294380
  16.7096600  65.7937010  53.4111560  16.6254920  65.2009670  54.8016460
  10.4450280  69.7353130  52.8989190  10.9594950  69.6461140  53.7011620
   9.6019360  70.0812830  53.1917100  12.4204680  70.0208470  42.3273190
  12.2605820  69.7311410  43.2255020  12.2551390  69.2448600  41.7918420
   4.8993060  69.8007000  44.1044810   4.7235540  68.8842540  43.8912610
   4.0448800  70.1594290  44.3442610  12.1230810  67.5296030  40.8871190
  11.4295970  67.5273320  40.2273470  12.8653670  67.1055350  40.4565360
  11.6880740  69.1558740  44.9619680  12.1437690  68.3748120  45.2758300
  12.0273260  69.8665560  45.5060860  16.4357550  58.0857590  55.2944120
  15.8201820  58.5937260  54.7659580  16.1153970  57.1855920  55.2370060
   4.2102060  54.0580960  47.1570990   3.7670210  54.8390500  46.8255510
   4.7687050  54.3810850  47.8641930   8.4971870  56.9249480  52.7606310
   8.0351240  57.1332500  53.5726250   8.0949980  56.1108830  52.4576980
  13.4976380  58.1458430  53.8902970  12.6469970  57.8464180  54.2112040
  13.3378170  58.3900440  52.9786790  10.5926090  59.6460180  55.9901760
  10.9179500  58.8123930  55.6503990  11.3806420  60.1688700  56.1380090
   7.3260880  53.6791660  42.0376820   6.7015060  53.6751530  42.7630130
   7.2391000  52.8122620  41.6412790   6.2477960  54.6028290  49.0160590
   6.5450290  55.5091120  48.9352610   6.7963520  54.1147070  48.4020160
   4.0016280  59.1814530  44.8852240   3.7757200  58.9651700  45.7898860
   3.2208810  59.6142990  44.5398210  11.2314040  59.1877900  43.4842890
  10.6322930  59.9113700  43.3006510  11.7793650  59.1254680  42.7019340
   6.4415490  60.0800110  55.5512510   6.3459090  59.1394840  55.4012910
   7.2847470  60.3015180  55.1560580   9.8378910  57.8241440  45.5146170
  10.2308480  58.1413640  44.7014860  10.1995760  56.9453320  45.6290690
   8.1471080  56.5748750  56.7743030   7.4569400  56.3820950  57.4089120
   8.8903380  56.8583390  57.3067330  10.4234050  60.4147190  49.6096950
   9.6915170  60.9234000  49.9587050  10.0258390  59.5977170  49.3085730
   6.8611440  57.0901390  48.0149440   6.8647500  56.6491340  47.1653980
   7.7562560  57.4118720  48.1221260   2.7113820  56.9727880  46.9743650
   2.3713870  57.4503110  47.7310700   1.9491140  56.5193000  46.6144750
   6.9231590  58.0913470  41.0056200   7.0444410  58.0499950  41.9542020
   6.5380100  58.9537620  40.8502930  10.8859960  55.8680870  49.0219890
  10.9032700  56.3189520  49.8661740  10.6375540  54.9686510  49.2353330
   5.9353090  60.4014610  40.4039500   5.3669990  59.9532860  39.7775410
   6.6442090  60.7607390  39.8704650  14.3130710  53.2813050  54.8606270
  14.6376480  52.5502710  55.3864250  14.3487220  52.9626690  53.9587260
   7.1619410  61.1503170  49.7614850   7.5289540  60.6761740  50.5076190
   6.9724470  62.0244740  50.1023190   4.9518780  60.1911810  52.0799060
   4.6475850  61.0703790  52.3049420   5.9065240  60.2511600  52.1156500
   3.4800570  64.3972800  42.6765910   2.7062830  63.8570420  42.5164630
   4.2095200  63.8779410  42.3383670  14.2388550  63.3938160  48.4692300
  14.9587670  63.8893450  48.0788410  14.0370370  62.7156050  47.8246170
   9.6998490  54.7876120  42.6121690   8.8863100  54.2889290  42.5367000
   9.5060440  55.6274370  42.1958040   9.6207350  63.4647220  54.3561300
   9.5544660  62.5442890  54.1018890   8.9912490  63.5622660  55.0705940
  12.4146880  59.1595770  40.9083850  13.3026500  59.4713000  40.7335190
  12.3851970  58.2868020  40.5164430   3.5237970  64.0653180  46.3144720
   4.0416640  63.2621440  46.2601610   3.0721990  64.0032320  47.1561550
   8.4107470  65.3319460  41.5872020   8.7523170  66.0761690  41.0915340
   7.5820180  65.6450580  41.9496850   4.2095630  61.4898790  56.1109970
   3.9095770  61.6355970  55.2137790   4.9806870  60.9304080  56.0183360
   9.5524080  66.2867790  54.1065100   9.5668620  65.3548750  53.8884010
   8.8449180  66.3727550  54.7454870  14.6861150  60.4707610  40.3763710
  14.6024870  60.9021830  39.5260150  15.4055340  60.9305960  40.8090530
  15.7635290  62.9275130  53.4533680  15.0383480  63.5203910  53.2563070
  16.2910750  62.9198670  52.6547050  15.7148400  67.3249870  43.1045840
  15.0724560  66.6705490  43.3789560  15.3279060  67.7304960  42.3286510
  11.2934880  64.6535300  46.9517530  11.6458700  64.0563430  46.2918900
  10.4097210  64.3279530  47.1225780   7.3798160  65.4132990  44.3587940
   8.0669290  65.9602200  44.7395530   6.5930580  65.9573720  44.3937550
   6.6825370  62.4179020  43.9713300   7.1388150  63.2284270  44.1973490
   6.3313580  62.1002160  44.8031790   8.9857980  67.9285360  51.2005600
   9.6300200  68.1344740  51.8779020   9.3487420  67.1673760  50.7476450
   2.5837150  52.7616670  44.4435820   2.4551780  52.7534570  45.3920740
   1.7599170  53.0999760  44.0926830  10.2590060  65.9317710  49.9183050
  10.9012290  65.2310870  50.0315220  10.7839410  66.7116150  49.7379940
  14.1045780  66.2166330  39.6422190  13.8783360  65.4996770  40.2346830
  13.7141980  65.9678770  38.8043940  12.0327680  66.7312610  53.1219110
  12.3683920  67.3179300  53.7997030  11.1128020  66.6005320  53.3516900
  13.6862030  64.1338270  41.3036350  13.3983730  64.5950960  42.0914230
  14.4814200  63.6736040  41.5720570   7.8616260  66.7803940  56.2907170
   7.5413130  66.0613180  56.8352860   7.1874620  67.4559010  56.3643230
   5.9030430  67.6264390  41.2340320   5.8940530  68.3594080  40.6184830
   4.9828790  67.3795970  41.3267280  11.0769860  57.0130100  51.6543970
  11.4450680  56.1925310  51.9823540  10.2168060  57.0731990  52.0699620
  14.4431890  55.9687040  42.4631530  13.8145050  56.0732710  41.7489760
  13.9483810  56.1883820  43.2525410   8.8890030  67.6892630  39.8965510
   8.9902010  67.4856620  38.9667490   7.9891770  67.4350910  40.1013290
   6.4115920  58.2472990  43.8789410   5.7032070  58.7159330  44.3203020
   6.6960400  57.5895000  44.5134600   8.0371850  59.6669690  51.8781940
   8.5357100  60.1415510  52.5433790   8.1794800  58.7433210  52.0851970
  10.4431350  54.9723650  45.3185200  10.3199130  54.9909780  44.3694710
  11.3915910  55.0202590  45.4383600   7.5308140  70.2078950  44.5913180
   7.7849640  70.1700340  43.6692550   6.5820620  70.0812280  44.5841430
   4.6150940  56.5558070  41.2540120   5.4641470  56.9928220  41.1880310
   4.2482210  56.8678330  42.0812180  15.2438710  55.8837650  52.7210330
  14.7412310  56.6243050  53.0604140  16.0595370  56.2721650  52.4047120
  13.5360720  61.1270830  46.1671690  12.5950860  61.1421060  46.3419380
  13.8504790  60.3406790  46.6131990   3.5142360  62.8090430  39.7275650
   4.2805630  62.6971790  40.2901080   3.5917050  62.1128400  39.0752420
   2.2089120  60.2415500  40.4108540   2.2892710  59.2943010  40.5225940
   3.1008870  60.5722380  40.5169200  15.5386300  68.2979680  47.8425950
  15.6633720  69.1210850  48.3149760  16.4051860  68.0870410  47.4950100
   3.0103830  70.3910890  47.5143080   3.7466310  69.8426350  47.7851650
   3.3944750  71.2566900  47.3749070   2.0162110  69.5756960  56.7028660
   2.8174840  69.8969010  57.1164060   1.5013930  69.2152540  57.4248570
   6.1206140  69.5641200  39.3368650   6.9134750  69.8530030  38.8850440
   5.6010490  69.1333370  38.6581130  10.8526740  65.6836830  56.6504070
  10.2464900  65.7068430  55.9099820  10.5480850  64.9519870  57.1871320
  12.2827110  69.4117120  55.2613480  13.2348860  69.3275140  55.2113720
  12.1355330  70.0758830  55.9347270  15.1736310  68.7911330  40.7605390
  14.8877820  68.3776470  39.9459570  14.9755860  69.7199040  40.6405910
   6.6383540  64.7844610  39.2011000   6.5334180  64.1696960  39.9272380
   6.4707760  64.2610500  38.4174010   6.7897860  63.4701410  55.1800230
   6.0243530  64.0386410  55.0954900   6.9713820  63.1777620  54.2868460
   9.8786270  63.8464640  39.8052990   9.3296370  64.2933940  40.4495730
  10.5005530  63.3413890  40.3290660  13.9321210  65.2006740  55.7375250
  14.6730680  65.5382500  55.2342710  13.1693890  65.3698800  55.1845020
   1.7683000  60.2060010  56.5414780   1.8088340  59.9073880  57.4500010
   2.6228500  60.6067620  56.3822300   5.5461390  62.8055560  41.7018290
   5.9677810  62.6395430  42.5449680   5.6712230  61.9955790  41.2073430
   3.7088810  58.7852110  54.5089270   3.1785270  58.2943060  53.8812610
   4.3776880  59.2136310  53.9747200   8.0589030  61.8293170  38.9495390
   8.5794690  61.1142190  38.5836540   8.7057430  62.4679040  39.2495900
  12.6066870  63.2521570  54.2730460  13.0207890  63.4066650  55.1220880
  11.6717870  63.3776790  54.4356240  13.0789040  60.5917730  56.2769610
  13.6609810  59.8370050  56.1890090  13.2550810  61.1225170  55.5001090
   4.1961110  55.7514480  54.5886560   4.1017980  55.1335230  53.8637430
   3.6158500  56.4780770  54.3616470   6.9622550  54.3087720  51.6213950
   6.5139850  54.3311980  50.7759500   6.3287750  53.9106740  52.2184250
   7.3682100  63.2042050  52.2426390   7.7870210  64.0474780  52.0702630
   6.4490730  63.3414090  52.0133170   9.7046000  60.9358230  53.6264230
   9.8242210  60.3399370  54.3659070  10.5640000  60.9727920  53.2065530
  12.0433900  61.4895420  52.2026740  11.5169120  62.0138040  51.5991880
  12.3865240  62.1222810  52.8336470   4.4420290  58.8788790  38.6476450
   4.2409350  58.0156150  39.0089790   4.2712340  58.7922150  37.7098050
   5.2189520  69.5095060  53.3584120   4.6810610  70.2341120  53.0392820
   5.4723480  69.0325400  52.5681460   6.4714770  57.4779580  54.8840050
   7.0614460  57.1695430  55.5717870   5.6535010  57.0059330  55.0399950
  11.2908200  57.0945390  55.1173070  10.6023720  56.4326930  55.0523060
  12.0114220  56.6483660  55.5621530  11.9208600  53.6897020  41.1763330
  12.2010890  52.8464920  41.5322750  11.1474330  53.9220130  41.6902080
   3.2403090  55.9789410  38.6354330   3.5428990  55.9856840  37.7273480
   3.9797680  55.6287270  39.1321990   8.0751730  70.7446270  53.6170770
   8.0010430  71.6481410  53.9243140   7.1730570  70.4258170  53.5892840
   6.4588020  54.9224030  39.6210530   6.1110020  54.2448020  39.0412980
   6.6600790  54.4613540  40.4353920   8.6237060  69.9104780  41.2397130
   9.5187850  70.2489750  41.2615890   8.6554690  69.1884190  40.6121410
   2.2633220  65.2831830  39.4684130   2.7008090  65.8261500  40.1241710
   2.7480950  64.4578780  39.4780470   4.0740940  66.4029870  44.5806360
   3.7736480  66.2794840  45.4810270   3.9678430  65.5438460  44.1722090
  15.6031410  68.4408450  53.9463330  15.0033400  68.5001010  53.2027250
  15.7325310  67.5013430  54.0760180  16.8432860  66.1826270  39.2833040
  16.0125820  66.2502920  39.7540270  17.0204690  67.0730390  38.9799900
  16.2989320  62.9273750  41.7867240  17.0608230  63.4970400  41.8926930
  16.3143690  62.3600950  42.5575550  17.3049290  63.7823850  46.6309170
  17.6758120  62.9991170  46.2245140  17.9451220  64.4712950  46.4526470
  14.2883050  65.1660430  52.0439490  13.4742890  65.5957590  52.3065280
  14.6957250  65.7778840  51.4308540  16.3508490  63.2208120  38.9439760
  16.6257330  64.1287000  38.8158980  16.1619230  63.1570650  39.8801750
  12.7484100  56.2452970  40.2393390  13.1668980  56.0583950  39.3990050
  12.4420160  55.3932020  40.5496320  16.2473830  61.1577110  43.9369190
  15.8717430  60.3905040  43.5050480  15.5176950  61.5399810  44.4244120
  15.6373450  60.3048630  53.5708710  15.4059540  60.0761380  52.6706660
  15.8978000  61.2248180  53.5253600  14.0761520  55.5305060  56.3488410
  14.9531700  55.5388460  56.7322410  14.0882360  54.7935900  55.7380760
  15.5224790  59.3834600  47.2376430  16.0462270  58.8897250  46.6066600
  16.1084210  59.5184960  47.9824000  15.7014510  59.4674470  50.7595980
  14.7517220  59.4338010  50.8740970  15.8827520  60.3774580  50.5245750
  15.0124760  58.6407950  43.1768840  15.5083880  58.4078820  43.9617720
  14.8140830  57.8019790  42.7606480  16.4411920  57.2768900  45.7106520
  16.3311200  57.1224940  46.6488790  17.2019510  56.7489840  45.4681930
  14.7877640  53.2163030  52.1689520  15.4249860  53.8297170  52.5348710
  14.9352530  53.2523690  51.2238750  17.3302190  55.1076820  38.9512660
  18.2551500  54.9758000  38.7430950  17.3077980  55.1869640  39.9049110
  17.4040680  55.8787480  41.5769370  16.6092180  55.8132600  42.1062280
  17.6083960  56.8138120  41.5654720  14.3459100  69.9179030  45.5707760
  14.9418170  69.5963600  44.8942180  14.6037250  69.4450850  46.3621030
   2.2521670  66.3496940  55.7198390   2.2091300  65.9789850  56.6012850
   2.3832680  67.2874510  55.8600210   5.9527700  67.9056530  51.3208110
   5.7119060  68.1731090  50.4338630   6.8930340  68.0762260  51.3758970
   8.1582120  54.3689220  55.0764620   8.0971010  54.9611050  55.8260030
   9.0982500  54.2615180  54.9314880  10.7956680  54.0259280  54.7156910
  11.4097090  54.3438570  54.0537990  11.3406240  53.5407870  55.3352770
  17.2131860  69.9250910  52.1218750  16.7190140  70.3219780  51.4045880
  16.6045150  69.3000120  52.5156030   2.0909700  69.2959190  52.8396170
   1.4970020  69.1643890  53.5786210   2.0833540  68.4597330  52.3738270
  11.5364720  52.5891420  51.0426200  10.6624560  52.9226530  50.8399130
  11.4275470  52.1164600  51.8678070  12.4436700  54.7962290  52.4267920
  12.1150060  53.9814050  52.0469650  13.3919000  54.7532100  52.3033610
  14.8971310  70.5674330  49.4005490  14.4374280  71.3190140  49.0263510
  14.2683770  69.8480800  49.3420290   5.3267030  68.8762570  48.5753620
   5.8432050  68.2649930  48.0501880   5.9764410  69.3791350  49.0664630
   8.0662530  69.7671060  49.4022600   8.3540340  69.5125360  48.5255610
   8.5785750  69.2148420  49.9928170   9.2839540  53.5061260  49.9819110
   8.5011330  53.9806760  50.2615870   8.9902470  52.6016090  49.8732290
  13.8360610  54.2084360  48.0268200  14.2768700  54.1529460  47.1789800
  13.5668200  55.1242370  48.0978380  15.6999180  53.8399600  46.0377020
  15.6387580  52.8960820  45.8908040  16.4791210  53.9479690  46.5830480
   7.1693760  55.9248010  45.4935140   6.3568270  55.5504900  45.1531020
   7.6735400  55.1693090  45.7956330  11.6718740  52.5890460  46.7318210
  12.2748110  53.1610670  47.2066730  10.9311730  53.1529900  46.5092110
  14.8153340  52.9912020  42.0058490  15.0103970  53.8895470  42.2725920
  14.0283210  52.7599100  42.4991440   3.0005100  54.3372790  41.0434800
   3.5297860  53.5502590  40.9142750   3.6333420  55.0163980  41.2770330
   5.1942940  54.0747930  44.0980190   4.5645680  53.3735240  44.2650320
   4.6548080  54.8352060  43.8813350   8.1334890  70.6887160  56.7690800
   9.0602200  70.4531430  56.8126760   8.1185320  71.5159160  56.2876830
  16.3679950  70.2312730  43.7665050  16.5432140  69.5450470  43.1225970
  15.6701520  70.7559780  43.3741720   5.3198500  53.3531910  56.5332680
   5.0382770  53.8565510  55.7693500   5.7018200  52.5553660  56.1674810
   4.2107600  70.6207570  41.3200360   4.9426420  70.3366850  40.7724250
   4.4701270  70.3820850  42.2099740   3.3722390  66.7372300  41.3246690
   2.7431270  67.2057400  41.8732520   3.4870220  65.8921520  41.7592880
  11.9213960  52.7685490  57.1113150  11.8079410  53.0880100  58.0064670
  12.7383700  53.1698000  56.8150430  14.7012450  69.9157020  56.5931840
  15.4937770  69.4206250  56.3857800  14.9945600  70.5947160  57.2007450
  10.8272110  60.7877960  27.4747890  10.7466160  59.8732570  27.2039600
  10.4136530  61.2845030  26.7687600   8.9590150  62.5656980  29.3557160
   8.1832250  62.0857420  29.6455730   9.6103080  61.8862630  29.1813320
   2.9755980  62.8776790  30.2332920   2.1440860  62.6225500  30.6329430
   3.5836960  62.9487560  30.9690840  12.9797580  66.9717170  28.1356290
  12.5179110  66.2004410  28.4643460  13.7923130  66.9983240  28.6408740
   2.9557240  66.9116880  30.4290940   3.2585280  66.0214620  30.2501160
   3.7000830  67.4687100  30.2013190   9.2060890  69.2575180  27.7560280
   8.5872330  69.7132680  27.1854720  10.0612670  69.4126640  27.3549980
   8.3999140  65.2414170  29.3627320   8.3307420  64.3004110  29.2016450
   9.1619000  65.3315580  29.9349890   9.4304310  58.0484550  29.5896250
   9.8069130  57.1756430  29.4769920   9.3323820  58.3843250  28.6986690
   3.5609320  56.4210180  25.0513690   3.6676070  57.3213910  25.3582450
   2.6501680  56.3728150  24.7608340  13.2128430  55.5434990  26.5224590
  14.0338050  55.0531560  26.5650070  13.2462510  56.1332650  27.2756430
   5.4017050  59.3896550  29.3838870   5.9095270  59.8877520  30.0243890
   5.9330290  58.6131750  29.2078230  17.5027980  57.5601740  33.0868220
  16.7980150  57.9483450  32.5683330  17.7685900  58.2552030  33.6889150
   3.6853150  54.0295110  33.6502290   3.6871590  54.5467500  32.8448190
   2.8557460  53.5525290  33.6272220  10.0724240  64.1414420  25.1492190
   9.4541510  64.6063870  24.5854910  10.5847490  64.8341900  25.5661700
   4.9356000  63.6690290  31.8275790   4.6025380  64.2959210  32.4696860
   5.1122680  64.1952170  31.0477460  13.4489910  57.4835370  29.2952130
  12.7445480  57.7720260  29.8755240  13.8102070  58.2935480  28.9351690
   3.3668480  55.7405070  31.6572740   3.7085290  56.5847120  31.3626610
   2.4284290  55.8888810  31.7738080   4.1475100  65.6371090  33.6424970
   4.7649100  66.3122170  33.3609420   3.2868220  66.0459070  33.5512470
  15.0652690  67.1010500  31.5579610  14.3816210  67.7709610  31.5496280
  15.6046980  67.2991150  30.7924470  16.5176830  56.9290160  29.6861340
  15.5701740  56.9629140  29.8176770  16.8426820  57.7429110  30.0710700
   7.0496370  53.2287340  27.9817330   7.3571350  52.6734230  27.2652830
   6.1197070  53.3631800  27.7990320  12.6011430  68.9454630  30.2724790
  12.6138590  68.5416920  29.4047050  12.0486650  69.7201920  30.1686220
  13.8956850  65.6670850  25.3614960  13.7853180  64.7245180  25.4864380
  13.8925100  66.0286490  26.2477720  11.9996870  63.8484470  31.6007400
  12.4165660  63.6344580  30.7660860  12.7236690  64.1057260  32.1716020
   9.4377130  61.2936170  24.7177450   8.5106410  61.2273550  24.9465920
   9.5901950  62.2316300  24.6032690   9.4246210  57.5653170  21.7144610
   8.4849880  57.7267130  21.7997070   9.7429470  58.2838850  21.1680600
  15.9458970  62.2471690  31.6923640  15.1177600  62.3164780  31.2173770
  16.5409450  62.8326000  31.2239470  13.4674420  62.8556470  25.2212700
  12.8486840  62.5176020  24.5739000  13.4498870  62.2116230  25.9291890
  12.9100980  59.0341010  32.6378510  12.4972160  59.8594720  32.8918500
  12.1776930  58.4486050  32.4454870   5.0433770  61.8200910  27.4997180
   4.6390770  61.1078160  27.0043080   5.1296890  61.4754150  28.3885220
   5.5115470  65.5068470  29.6636390   5.2143760  64.9013940  28.9844170
   6.4615290  65.5445780  29.5525750   3.7562390  58.5944120  31.2796220
   4.3076980  58.7039460  30.5049470   4.2705900  58.9681720  31.9951450
  13.6001080  69.0800340  33.3259490  13.1231640  69.8872530  33.1332100
  12.9162870  68.4278670  33.4785700   4.6033900  65.2450160  36.3144190
   3.7062430  65.4690130  36.5617590   4.6286770  65.3685100  35.3655590
  11.6439120  62.0943280  22.2285450  12.0832400  61.2565710  22.0823270
  12.3567540  62.7272680  22.3149590   3.4305120  62.1163480  34.8901560
   3.2912890  62.9886280  35.2588960   2.5486480  61.7736290  34.7449500
   9.7534500  67.0339350  26.1966690  10.1930410  67.7763680  25.7822080
   9.6921390  67.2765920  27.1205650   5.2285470  68.0585180  37.0986710
   5.2000900  68.4628130  36.2315140   5.0650440  67.1295540  36.9358310
  15.2256260  53.3486090  20.5426490  14.9128920  53.4412920  21.4425560
  15.9868730  53.9267120  20.4923920  17.1800290  68.8412280  38.3950880
  17.6560010  69.3195170  39.0739960  17.8007450  68.7729770  37.6696380
  16.5833540  66.0325130  35.5550890  16.7096600  65.7937010  34.6368070
  16.6254920  65.2009670  36.0272970  10.4450280  69.7353130  34.1245700
  10.9594950  69.6461140  34.9268130   9.6019360  70.0812830  34.4173610
  12.4204680  70.0208470  23.5529700  12.2605820  69.7311410  24.4511530
  12.2551390  69.2448600  23.0174930   4.8993060  69.8007000  25.3301320
   4.7235540  68.8842540  25.1169120   4.0448800  70.1594290  25.5699120
  12.1230810  67.5296030  22.1127700  11.4295970  67.5273320  21.4529980
  12.8653670  67.1055350  21.6821870  11.6880740  69.1558740  26.1876190
  12.1437690  68.3748120  26.5014810  12.0273260  69.8665560  26.7317370
  16.4357550  58.0857590  36.5200630  15.8201820  58.5937260  35.9916090
  16.1153970  57.1855920  36.4626570   4.2102060  54.0580960  28.3827500
   3.7670210  54.8390500  28.0512020   4.7687050  54.3810850  29.0898440
   8.4971870  56.9249480  33.9862820   8.0351240  57.1332500  34.7982760
   8.0949980  56.1108830  33.6833490  13.4976380  58.1458430  35.1159480
  12.6469970  57.8464180  35.4368550  13.3378170  58.3900440  34.2043300
  10.5926090  59.6460180  37.2158270  10.9179500  58.8123930  36.8760500
  11.3806420  60.1688700  37.3636600   7.3260880  53.6791660  23.2633330
   6.7015060  53.6751530  23.9886640   7.2391000  52.8122620  22.8669300
   6.2477960  54.6028290  30.2417100   6.5450290  55.5091120  30.1609120
   6.7963520  54.1147070  29.6276670   4.0016280  59.1814530  26.1108750
   3.7757200  58.9651700  27.0155370   3.2208810  59.6142990  25.7654720
  11.2314040  59.1877900  24.7099400  10.6322930  59.9113700  24.5263020
  11.7793650  59.1254680  23.9275850   6.4415490  60.0800110  36.7769020
   6.3459090  59.1394840  36.6269420   7.2847470  60.3015180  36.3817090
   9.8378910  57.8241440  26.7402680  10.2308480  58.1413640  25.9271370
  10.1995760  56.9453320  26.8547200   8.1471080  56.5748750  37.9999540
   7.4569400  56.3820950  38.6345630   8.8903380  56.8583390  38.5323840
  10.4234050  60.4147190  30.8353460   9.6915170  60.9234000  31.1843560
  10.0258390  59.5977170  30.5342240   6.8611440  57.0901390  29.2405950
   6.8647500  56.6491340  28.3910490   7.7562560  57.4118720  29.3477770
   2.7113820  56.9727880  28.2000160   2.3713870  57.4503110  28.9567210
   1.9491140  56.5193000  27.8401260   6.9231590  58.0913470  22.2312710
   7.0444410  58.0499950  23.1798530   6.5380100  58.9537620  22.0759440
  10.8859960  55.8680870  30.2476400  10.9032700  56.3189520  31.0918250
  10.6375540  54.9686510  30.4609840   5.9353090  60.4014610  21.6296010
   5.3669990  59.9532860  21.0031920   6.6442090  60.7607390  21.0961160
  14.3130710  53.2813050  36.0862780  14.6376480  52.5502710  36.6120760
  14.3487220  52.9626690  35.1843770   7.1619410  61.1503170  30.9871360
   7.5289540  60.6761740  31.7332700   6.9724470  62.0244740  31.3279700
   4.9518780  60.1911810  33.3055570   4.6475850  61.0703790  33.5305930
   5.9065240  60.2511600  33.3413010   3.4800570  64.3972800  23.9022420
   2.7062830  63.8570420  23.7421140   4.2095200  63.8779410  23.5640180
  14.2388550  63.3938160  29.6948810  14.9587670  63.8893450  29.3044920
  14.0370370  62.7156050  29.0502680   9.6998490  54.7876120  23.8378200
   8.8863100  54.2889290  23.7623510   9.5060440  55.6274370  23.4214550
   9.6207350  63.4647220  35.5817810   9.5544660  62.5442890  35.3275400
   8.9912490  63.5622660  36.2962450  12.4146880  59.1595770  22.1340360
  13.3026500  59.4713000  21.9591700  12.3851970  58.2868020  21.7420940
   3.5237970  64.0653180  27.5401230   4.0416640  63.2621440  27.4858120
   3.0721990  64.0032320  28.3818060   8.4107470  65.3319460  22.8128530
   8.7523170  66.0761690  22.3171850   7.5820180  65.6450580  23.1753360
   4.2095630  61.4898790  37.3366480   3.9095770  61.6355970  36.4394300
   4.9806870  60.9304080  37.2439870   9.5524080  66.2867790  35.3321610
   9.5668620  65.3548750  35.1140520   8.8449180  66.3727550  35.9711380
  14.6861150  60.4707610  21.6020220  14.6024870  60.9021830  20.7516660
  15.4055340  60.9305960  22.0347040  15.7635290  62.9275130  34.6790190
  15.0383480  63.5203910  34.4819580  16.2910750  62.9198670  33.8803560
  15.7148400  67.3249870  24.3302350  15.0724560  66.6705490  24.6046070
  15.3279060  67.7304960  23.5543020  11.2934880  64.6535300  28.1774040
  11.6458700  64.0563430  27.5175410  10.4097210  64.3279530  28.3482290
   7.3798160  65.4132990  25.5844450   8.0669290  65.9602200  25.9652040
   6.5930580  65.9573720  25.6194060   6.6825370  62.4179020  25.1969810
   7.1388150  63.2284270  25.4230000   6.3313580  62.1002160  26.0288300
   8.9857980  67.9285360  32.4262110   9.6300200  68.1344740  33.1035530
   9.3487420  67.1673760  31.9732960   2.5837150  52.7616670  25.6692330
   2.4551780  52.7534570  26.6177250   1.7599170  53.0999760  25.3183340
  10.2590060  65.9317710  31.1439560  10.9012290  65.2310870  31.2571730
  10.7839410  66.7116150  30.9636450  14.1045780  66.2166330  20.8678700
  13.8783360  65.4996770  21.4603340  13.7141980  65.9678770  20.0300450
  12.0327680  66.7312610  34.3475620  12.3683920  67.3179300  35.0253540
  11.1128020  66.6005320  34.5773410  13.6862030  64.1338270  22.5292860
  13.3983730  64.5950960  23.3170740  14.4814200  63.6736040  22.7977080
   7.8616260  66.7803940  37.5163680   7.5413130  66.0613180  38.0609370
   7.1874620  67.4559010  37.5899740   5.9030430  67.6264390  22.4596830
   5.8940530  68.3594080  21.8441340   4.9828790  67.3795970  22.5523790
  11.0769860  57.0130100  32.8800480  11.4450680  56.1925310  33.2080050
  10.2168060  57.0731990  33.2956130  14.4431890  55.9687040  23.6888040
  13.8145050  56.0732710  22.9746270  13.9483810  56.1883820  24.4781920
   8.8890030  67.6892630  21.1222020   8.9902010  67.4856620  20.1924000
   7.9891770  67.4350910  21.3269800   6.4115920  58.2472990  25.1045920
   5.7032070  58.7159330  25.5459530   6.6960400  57.5895000  25.7391110
   8.0371850  59.6669690  33.1038450   8.5357100  60.1415510  33.7690300
   8.1794800  58.7433210  33.3108480  10.4431350  54.9723650  26.5441710
  10.3199130  54.9909780  25.5951220  11.3915910  55.0202590  26.6640110
   7.5308140  70.2078950  25.8169690   7.7849640  70.1700340  24.8949060
   6.5820620  70.0812280  25.8097940   4.6150940  56.5558070  22.4796630
   5.4641470  56.9928220  22.4136820   4.2482210  56.8678330  23.3068690
  15.2438710  55.8837650  33.9466840  14.7412310  56.6243050  34.2860650
  16.0595370  56.2721650  33.6303630  13.5360720  61.1270830  27.3928200
  12.5950860  61.1421060  27.5675890  13.8504790  60.3406790  27.8388500
   3.5142360  62.8090430  20.9532160   4.2805630  62.6971790  21.5157590
   3.5917050  62.1128400  20.3008930   2.2089120  60.2415500  21.6365050
   2.2892710  59.2943010  21.7482450   3.1008870  60.5722380  21.7425710
  15.5386300  68.2979680  29.0682460  15.6633720  69.1210850  29.5406270
  16.4051860  68.0870410  28.7206610   3.0103830  70.3910890  28.7399590
   3.7466310  69.8426350  29.0108160   3.3944750  71.2566900  28.6005580
   2.0162110  69.5756960  37.9285170   2.8174840  69.8969010  38.3420570
   1.5013930  69.2152540  38.6505080   6.1206140  69.5641200  20.5625160
   6.9134750  69.8530030  20.1106950   5.6010490  69.1333370  19.8837640
  10.8526740  65.6836830  37.8760580  10.2464900  65.7068430  37.1356330
  10.5480850  64.9519870  38.4127830  12.2827110  69.4117120  36.4869990
  13.2348860  69.3275140  36.4370230  12.1355330  70.0758830  37.1603780
  15.1736310  68.7911330  21.9861900  14.8877820  68.3776470  21.1716080
  14.9755860  69.7199040  21.8662420   6.6383540  64.7844610  20.4267510
   6.5334180  64.1696960  21.1528890   6.4707760  64.2610500  19.6430520
   6.7897860  63.4701410  36.4056740   6.0243530  64.0386410  36.3211410
   6.9713820  63.1777620  35.5124970   9.8786270  63.8464640  21.0309500
   9.3296370  64.2933940  21.6752240  10.5005530  63.3413890  21.5547170
  13.9321210  65.2006740  36.9631760  14.6730680  65.5382500  36.4599220
  13.1693890  65.3698800  36.4101530   1.7683000  60.2060010  37.7671290
   1.8088340  59.9073880  38.6756520   2.6228500  60.6067620  37.6078810
   5.5461390  62.8055560  22.9274800   5.9677810  62.6395430  23.7706190
   5.6712230  61.9955790  22.4329940   3.7088810  58.7852110  35.7345780
   3.1785270  58.2943060  35.1069120   4.3776880  59.2136310  35.2003710
   8.0589030  61.8293170  20.1751900   8.5794690  61.1142190  19.8093050
   8.7057430  62.4679040  20.4752410  12.6066870  63.2521570  35.4986970
  13.0207890  63.4066650  36.3477390  11.6717870  63.3776790  35.6612750
  13.0789040  60.5917730  37.5026120  13.6609810  59.8370050  37.4146600
  13.2550810  61.1225170  36.7257600   4.1961110  55.7514480  35.8143070
   4.1017980  55.1335230  35.0893940   3.6158500  56.4780770  35.5872980
   6.9622550  54.3087720  32.8470460   6.5139850  54.3311980  32.0016010
   6.3287750  53.9106740  33.4440760   7.3682100  63.2042050  33.4682900
   7.7870210  64.0474780  33.2959140   6.4490730  63.3414090  33.2389680
   9.7046000  60.9358230  34.8520740   9.8242210  60.3399370  35.5915580
  10.5640000  60.9727920  34.4322040  12.0433900  61.4895420  33.4283250
  11.5169120  62.0138040  32.8248390  12.3865240  62.1222810  34.0592980
   4.4420290  58.8788790  19.8732960   4.2409350  58.0156150  20.2346300
   4.2712340  58.7922150  18.9354560   5.2189520  69.5095060  34.5840630
   4.6810610  70.2341120  34.2649330   5.4723480  69.0325400  33.7937970
   6.4714770  57.4779580  36.1096560   7.0614460  57.1695430  36.7974380
   5.6535010  57.0059330  36.2656460  11.2908200  57.0945390  36.3429580
  10.6023720  56.4326930  36.2779570  12.0114220  56.6483660  36.7878040
  11.9208600  53.6897020  22.4019840  12.2010890  52.8464920  22.7579260
  11.1474330  53.9220130  22.9158590   3.2403090  55.9789410  19.8610840
   3.5428990  55.9856840  18.9529990   3.9797680  55.6287270  20.3578500
   8.0751730  70.7446270  34.8427280   8.0010430  71.6481410  35.1499650
   7.1730570  70.4258170  34.8149350   6.4588020  54.9224030  20.8467040
   6.1110020  54.2448020  20.2669490   6.6600790  54.4613540  21.6610430
   8.6237060  69.9104780  22.4653640   9.5187850  70.2489750  22.4872400
   8.6554690  69.1884190  21.8377920   2.2633220  65.2831830  20.6940640
   2.7008090  65.8261500  21.3498220   2.7480950  64.4578780  20.7036980
   4.0740940  66.4029870  25.8062870   3.7736480  66.2794840  26.7066780
   3.9678430  65.5438460  25.3978600  15.6031410  68.4408450  35.1719840
  15.0033400  68.5001010  34.4283760  15.7325310  67.5013430  35.3016690
  16.8432860  66.1826270  20.5089550  16.0125820  66.2502920  20.9796780
  17.0204690  67.0730390  20.2056410  16.2989320  62.9273750  23.0123750
  17.0608230  63.4970400  23.1183440  16.3143690  62.3600950  23.7832060
  17.3049290  63.7823850  27.8565680  17.6758120  62.9991170  27.4501650
  17.9451220  64.4712950  27.6782980  14.2883050  65.1660430  33.2696000
  13.4742890  65.5957590  33.5321790  14.6957250  65.7778840  32.6565050
  16.3508490  63.2208120  20.1696270  16.6257330  64.1287000  20.0415490
  16.1619230  63.1570650  21.1058260  12.7484100  56.2452970  21.4649900
  13.1668980  56.0583950  20.6246560  12.4420160  55.3932020  21.7752830
  16.2473830  61.1577110  25.1625700  15.8717430  60.3905040  24.7306990
  15.5176950  61.5399810  25.6500630  15.6373450  60.3048630  34.7965220
  15.4059540  60.0761380  33.8963170  15.8978000  61.2248180  34.7510110
  14.0761520  55.5305060  37.5744920  14.9531700  55.5388460  37.9578920
  14.0882360  54.7935900  36.9637270  15.5224790  59.3834600  28.4632940
  16.0462270  58.8897250  27.8323110  16.1084210  59.5184960  29.2080510
  15.7014510  59.4674470  31.9852490  14.7517220  59.4338010  32.0997480
  15.8827520  60.3774580  31.7502260  15.0124760  58.6407950  24.4025350
  15.5083880  58.4078820  25.1874230  14.8140830  57.8019790  23.9862990
  16.4411920  57.2768900  26.9363030  16.3311200  57.1224940  27.8745300
  17.2019510  56.7489840  26.6938440  14.7877640  53.2163030  33.3946030
  15.4249860  53.8297170  33.7605220  14.9352530  53.2523690  32.4495260
  17.3302190  55.1076820  20.1769170  18.2551500  54.9758000  19.9687460
  17.3077980  55.1869640  21.1305620  17.4040680  55.8787480  22.8025880
  16.6092180  55.8132600  23.3318790  17.6083960  56.8138120  22.7911230
  14.3459100  69.9179030  26.7964270  14.9418170  69.5963600  26.1198690
  14.6037250  69.4450850  27.5877540   2.2521670  66.3496940  36.9454900
   2.2091300  65.9789850  37.8269360   2.3832680  67.2874510  37.0856720
   5.9527700  67.9056530  32.5464620   5.7119060  68.1731090  31.6595140
   6.8930340  68.0762260  32.6015480   8.1582120  54.3689220  36.3021130
   8.0971010  54.9611050  37.0516540   9.0982500  54.2615180  36.1571390
  10.7956680  54.0259280  35.9413420  11.4097090  54.3438570  35.2794500
  11.3406240  53.5407870  36.5609280  17.2131860  69.9250910  33.3475260
  16.7190140  70.3219780  32.6302390  16.6045150  69.3000120  33.7412540
   2.0909700  69.2959190  34.0652680   1.4970020  69.1643890  34.8042720
   2.0833540  68.4597330  33.5994780  11.5364720  52.5891420  32.2682710
  10.6624560  52.9226530  32.0655640  11.4275470  52.1164600  33.0934580
  12.4436700  54.7962290  33.6524430  12.1150060  53.9814050  33.2726160
  13.3919000  54.7532100  33.5290120  14.8971310  70.5674330  30.6262000
  14.4374280  71.3190140  30.2520020  14.2683770  69.8480800  30.5676800
   5.3267030  68.8762570  29.8010130   5.8432050  68.2649930  29.2758390
   5.9764410  69.3791350  30.2921140   8.0662530  69.7671060  30.6279110
   8.3540340  69.5125360  29.7512120   8.5785750  69.2148420  31.2184680
   9.2839540  53.5061260  31.2075620   8.5011330  53.9806760  31.4872380
   8.9902470  52.6016090  31.0988800  13.8360610  54.2084360  29.2524710
  14.2768700  54.1529460  28.4046310  13.5668200  55.1242370  29.3234890
  15.6999180  53.8399600  27.2633530  15.6387580  52.8960820  27.1164550
  16.4791210  53.9479690  27.8086990   7.1693760  55.9248010  26.7191650
   6.3568270  55.5504900  26.3787530   7.6735400  55.1693090  27.0212840
  11.6718740  52.5890460  27.9574720  12.2748110  53.1610670  28.4323240
  10.9311730  53.1529900  27.7348620  14.8153340  52.9912020  23.2315000
  15.0103970  53.8895470  23.4982430  14.0283210  52.7599100  23.7247950
   3.0005100  54.3372790  22.2691310   3.5297860  53.5502590  22.1399260
   3.6333420  55.0163980  22.5026840   5.1942940  54.0747930  25.3236700
   4.5645680  53.3735240  25.4906830   4.6548080  54.8352060  25.1069860
   8.1334890  70.6887160  37.9947310   9.0602200  70.4531430  38.0383270
   8.1185320  71.5159160  37.5133340  16.3679950  70.2312730  24.9921560
  16.5432140  69.5450470  24.3482480  15.6701520  70.7559780  24.5998230
   5.3198500  53.3531910  37.7589190   5.0382770  53.8565510  36.9950010
   5.7018200  52.5553660  37.3931320   4.2107600  70.6207570  22.5456870
   4.9426420  70.3366850  21.9980760   4.4701270  70.3820850  23.4356250
   3.3722390  66.7372300  22.5503200   2.7431270  67.2057400  23.0989030
   3.4870220  65.8921520  22.9849390  11.9213960  52.7685490  38.3369660
  11.8079410  53.0880100  39.2321180  12.7383700  53.1698000  38.0406940
  14.7012450  69.9157020  37.8188350  15.4937770  69.4206250  37.6114310
  14.9945600  70.5947160  38.4263960  10.8272110  60.7877960   8.7004400
  10.7466160  59.8732570   8.4296110  10.4136530  61.2845030   7.9944110
   8.9590150  62.5656980  10.5813670   8.1832250  62.0857420  10.8712240
   9.6103080  61.8862630  10.4069830   2.9755980  62.8776790  11.4589430
   2.1440860  62.6225500  11.8585940   3.5836960  62.9487560  12.1947350
  12.9797580  66.9717170   9.3612800  12.5179110  66.2004410   9.6899970
  13.7923130  66.9983240   9.8665250   2.9557240  66.9116880  11.6547450
   3.2585280  66.0214620  11.4757670   3.7000830  67.4687100  11.4269700
   9.2060890  69.2575180   8.9816790   8.5872330  69.7132680   8.4111230
  10.0612670  69.4126640   8.5806490   8.3999140  65.2414170  10.5883830
   8.3307420  64.3004110  10.4272960   9.1619000  65.3315580  11.1606400
   9.4304310  58.0484550  10.8152760   9.8069130  57.1756430  10.7026430
   9.3323820  58.3843250   9.9243200   3.5609320  56.4210180   6.2770200
   3.6676070  57.3213910   6.5838960   2.6501680  56.3728150   5.9864850
  13.2128430  55.5434990   7.7481100  14.0338050  55.0531560   7.7906580
  13.2462510  56.1332650   8.5012940   5.4017050  59.3896550  10.6095380
   5.9095270  59.8877520  11.2500400   5.9330290  58.6131750  10.4334740
  17.5027980  57.5601740  14.3124730  16.7980150  57.9483450  13.7939840
  17.7685900  58.2552030  14.9145660   3.6853150  54.0295110  14.8758800
   3.6871590  54.5467500  14.0704700   2.8557460  53.5525290  14.8528730
  10.0724240  64.1414420   6.3748700   9.4541510  64.6063870   5.8111420
  10.5847490  64.8341900   6.7918210   4.9356000  63.6690290  13.0532300
   4.6025380  64.2959210  13.6953370   5.1122680  64.1952170  12.2733970
  13.4489910  57.4835370  10.5208640  12.7445480  57.7720260  11.1011750
  13.8102070  58.2935480  10.1608200   3.3668480  55.7405070  12.8829250
   3.7085290  56.5847120  12.5883120   2.4284290  55.8888810  12.9994590
   4.1475100  65.6371090  14.8681480   4.7649100  66.3122170  14.5865930
   3.2868220  66.0459070  14.7768980  15.0652690  67.1010500  12.7836120
  14.3816210  67.7709610  12.7752790  15.6046980  67.2991150  12.0180980
  16.5176830  56.9290160  10.9117850  15.5701740  56.9629140  11.0433280
  16.8426820  57.7429110  11.2967210   7.0496370  53.2287340   9.2073840
   7.3571350  52.6734230   8.4909340   6.1197070  53.3631800   9.0246830
  12.6011430  68.9454630  11.4981300  12.6138590  68.5416920  10.6303560
  12.0486650  69.7201920  11.3942730  13.8956850  65.6670850   6.5871470
  13.7853180  64.7245180   6.7120890  13.8925100  66.0286490   7.4734230
  11.9996870  63.8484470  12.8263910  12.4165660  63.6344580  11.9917370
  12.7236690  64.1057260  13.3972530   9.4377130  61.2936170   5.9433960
   8.5106410  61.2273550   6.1722430   9.5901950  62.2316300   5.8289200
   9.4246210  57.5653170   2.9401120   8.4849880  57.7267130   3.0253580
   9.7429470  58.2838850   2.3937110  15.9458970  62.2471690  12.9180150
  15.1177600  62.3164780  12.4430280  16.5409450  62.8326000  12.4495980
  13.4674420  62.8556470   6.4469210  12.8486840  62.5176020   5.7995510
  13.4498870  62.2116230   7.1548400  12.9100980  59.0341010  13.8635020
  12.4972160  59.8594720  14.1175010  12.1776930  58.4486050  13.6711380
   5.0433770  61.8200910   8.7253690   4.6390770  61.1078160   8.2299590
   5.1296890  61.4754150   9.6141730   5.5115470  65.5068470  10.8892900
   5.2143760  64.9013940  10.2100680   6.4615290  65.5445780  10.7782260
   3.7562390  58.5944120  12.5052730   4.3076980  58.7039460  11.7305980
   4.2705900  58.9681720  13.2207960  13.6001080  69.0800340  14.5516000
  13.1231640  69.8872530  14.3588610  12.9162870  68.4278670  14.7042210
   4.6033900  65.2450160  17.5400700   3.7062430  65.4690130  17.7874100
   4.6286770  65.3685100  16.5912100  11.6439120  62.0943280   3.4541960
  12.0832400  61.2565710   3.3079780  12.3567540  62.7272680   3.5406100
   3.4305120  62.1163480  16.1158070   3.2912890  62.9886280  16.4845470
   2.5486480  61.7736290  15.9706010   9.7534500  67.0339350   7.4223200
  10.1930410  67.7763680   7.0078590   9.6921390  67.2765920   8.3462160
   5.2285470  68.0585180  18.3243220   5.2000900  68.4628130  17.4571650
   5.0650440  67.1295540  18.1614820  15.2256260  53.3486090   1.7683000
  14.9128920  53.4412920   2.6682070  15.9868730  53.9267120   1.7180430
  17.1800290  68.8412280  19.6207390  17.6560010  69.3195170  20.2996470
  17.8007450  68.7729770  18.8952890  16.5833540  66.0325130  16.7807400
  16.7096600  65.7937010  15.8624580  16.6254920  65.2009670  17.2529480
  10.4450280  69.7353130  15.3502210  10.9594950  69.6461140  16.1524640
   9.6019360  70.0812830  15.6430120  12.4204680  70.0208470   4.7786210
  12.2605820  69.7311410   5.6768040  12.2551390  69.2448600   4.2431440
   4.8993060  69.8007000   6.5557830   4.7235540  68.8842540   6.3425630
   4.0448800  70.1594290   6.7955630  12.1230810  67.5296030   3.3384210
  11.4295970  67.5273320   2.6786490  12.8653670  67.1055350   2.9078380
  11.6880740  69.1558740   7.4132700  12.1437690  68.3748120   7.7271320
  12.0273260  69.8665560   7.9573880  16.4357550  58.0857590  17.7457140
  15.8201820  58.5937260  17.2172600  16.1153970  57.1855920  17.6883080
   4.2102060  54.0580960   9.6084010   3.7670210  54.8390500   9.2768530
   4.7687050  54.3810850  10.3154950   8.4971870  56.9249480  15.2119330
   8.0351240  57.1332500  16.0239270   8.0949980  56.1108830  14.9090000
  13.4976380  58.1458430  16.3415990  12.6469970  57.8464180  16.6625060
  13.3378170  58.3900440  15.4299810  10.5926090  59.6460180  18.4414780
  10.9179500  58.8123930  18.1017010  11.3806420  60.1688700  18.5893110
   7.3260880  53.6791660   4.4889840   6.7015060  53.6751530   5.2143150
   7.2391000  52.8122620   4.0925810   6.2477960  54.6028290  11.4673610
   6.5450290  55.5091120  11.3865630   6.7963520  54.1147070  10.8533180
   4.0016280  59.1814530   7.3365260   3.7757200  58.9651700   8.2411880
   3.2208810  59.6142990   6.9911230  11.2314040  59.1877900   5.9355910
  10.6322930  59.9113700   5.7519530  11.7793650  59.1254680   5.1532360
   6.4415490  60.0800110  18.0025530   6.3459090  59.1394840  17.8525930
   7.2847470  60.3015180  17.6073600   9.8378910  57.8241440   7.9659190
  10.2308480  58.1413640   7.1527880  10.1995760  56.9453320   8.0803710
   8.1471080  56.5748750  19.2256050   7.4569400  56.3820950  19.8602140
   8.8903380  56.8583390  19.7580350  10.4234050  60.4147190  12.0609970
   9.6915170  60.9234000  12.4100070  10.0258390  59.5977170  11.7598750
   6.8611440  57.0901390  10.4662460   6.8647500  56.6491340   9.6167000
   7.7562560  57.4118720  10.5734280   2.7113820  56.9727880   9.4256670
   2.3713870  57.4503110  10.1823720   1.9491140  56.5193000   9.0657770
   6.9231590  58.0913470   3.4569220   7.0444410  58.0499950   4.4055040
   6.5380100  58.9537620   3.3015950  10.8859960  55.8680870  11.4732910
  10.9032700  56.3189520  12.3174760  10.6375540  54.9686510  11.6866350
   5.9353090  60.4014610   2.8552520   5.3669990  59.9532860   2.2288430
   6.6442090  60.7607390   2.3217670  14.3130710  53.2813050  17.3119290
  14.6376480  52.5502710  17.8377270  14.3487220  52.9626690  16.4100280
   7.1619410  61.1503170  12.2127870   7.5289540  60.6761740  12.9589210
   6.9724470  62.0244740  12.5536210   4.9518780  60.1911810  14.5312080
   4.6475850  61.0703790  14.7562440   5.9065240  60.2511600  14.5669520
   3.4800570  64.3972800   5.1278930   2.7062830  63.8570420   4.9677650
   4.2095200  63.8779410   4.7896690  14.2388550  63.3938160  10.9205320
  14.9587670  63.8893450  10.5301430  14.0370370  62.7156050  10.2759190
   9.6998490  54.7876120   5.0634710   8.8863100  54.2889290   4.9880020
   9.5060440  55.6274370   4.6471060   9.6207350  63.4647220  16.8074320
   9.5544660  62.5442890  16.5531910   8.9912490  63.5622660  17.5218960
  12.4146880  59.1595770   3.3596870  13.3026500  59.4713000   3.1848210
  12.3851970  58.2868020   2.9677450   3.5237970  64.0653180   8.7657740
   4.0416640  63.2621440   8.7114630   3.0721990  64.0032320   9.6074570
   8.4107470  65.3319460   4.0385040   8.7523170  66.0761690   3.5428360
   7.5820180  65.6450580   4.4009870   4.2095630  61.4898790  18.5622990
   3.9095770  61.6355970  17.6650810   4.9806870  60.9304080  18.4696380
   9.5524080  66.2867790  16.5578120   9.5668620  65.3548750  16.3397030
   8.8449180  66.3727550  17.1967890  14.6861150  60.4707610   2.8276730
  14.6024870  60.9021830   1.9773170  15.4055340  60.9305960   3.2603550
  15.7635290  62.9275130  15.9046700  15.0383480  63.5203910  15.7076090
  16.2910750  62.9198670  15.1060070  15.7148400  67.3249870   5.5558860
  15.0724560  66.6705490   5.8302580  15.3279060  67.7304960   4.7799530
  11.2934880  64.6535300   9.4030550  11.6458700  64.0563430   8.7431920
  10.4097210  64.3279530   9.5738800   7.3798160  65.4132990   6.8100960
   8.0669290  65.9602200   7.1908550   6.5930580  65.9573720   6.8450570
   6.6825370  62.4179020   6.4226320   7.1388150  63.2284270   6.6486510
   6.3313580  62.1002160   7.2544810   8.9857980  67.9285360  13.6518620
   9.6300200  68.1344740  14.3292040   9.3487420  67.1673760  13.1989470
   2.5837150  52.7616670   6.8948840   2.4551780  52.7534570   7.8433760
   1.7599170  53.0999760   6.5439850  10.2590060  65.9317710  12.3696070
  10.9012290  65.2310870  12.4828240  10.7839410  66.7116150  12.1892960
  12.0327680  66.7312610  15.5732130  12.3683920  67.3179300  16.2510050
  11.1128020  66.6005320  15.8029920  13.6862030  64.1338270   3.7549370
  13.3983730  64.5950960   4.5427250  14.4814200  63.6736040   4.0233590
   7.8616260  66.7803940  18.7420190   7.5413130  66.0613180  19.2865880
   7.1874620  67.4559010  18.8156250   5.9030430  67.6264390   3.6853340
   5.8940530  68.3594080   3.0697850   4.9828790  67.3795970   3.7780300
  11.0769860  57.0130100  14.1056990  11.4450680  56.1925310  14.4336560
  10.2168060  57.0731990  14.5212640  14.4431890  55.9687040   4.9144550
  13.8145050  56.0732710   4.2002780  13.9483810  56.1883820   5.7038430
   6.4115920  58.2472990   6.3302430   5.7032070  58.7159330   6.7716040
   6.6960400  57.5895000   6.9647620   8.0371850  59.6669690  14.3294960
   8.5357100  60.1415510  14.9946810   8.1794800  58.7433210  14.5364990
  10.4431350  54.9723650   7.7698220  10.3199130  54.9909780   6.8207730
  11.3915910  55.0202590   7.8896620   7.5308140  70.2078950   7.0426200
   7.7849640  70.1700340   6.1205570   6.5820620  70.0812280   7.0354450
   4.6150940  56.5558070   3.7053140   5.4641470  56.9928220   3.6393330
   4.2482210  56.8678330   4.5325200  15.2438710  55.8837650  15.1723350
  14.7412310  56.6243050  15.5117160  16.0595370  56.2721650  14.8560140
  13.5360720  61.1270830   8.6184710  12.5950860  61.1421060   8.7932400
  13.8504790  60.3406790   9.0645010   2.2089120  60.2415500   2.8621560
   2.2892710  59.2943010   2.9738960   3.1008870  60.5722380   2.9682220
  15.5386300  68.2979680  10.2938970  15.6633720  69.1210850  10.7662780
  16.4051860  68.0870410   9.9463120   3.0103830  70.3910890   9.9656100
   3.7466310  69.8426350  10.2364670   3.3944750  71.2566900   9.8262090
   2.0162110  69.5756960  19.1541680   2.8174840  69.8969010  19.5677080
   1.5013930  69.2152540  19.8761590  10.8526740  65.6836830  19.1017090
  10.2464900  65.7068430  18.3612840  10.5480850  64.9519870  19.6384340
  12.2827110  69.4117120  17.7126500  13.2348860  69.3275140  17.6626740
  12.1355330  70.0758830  18.3860290  15.1736310  68.7911330   3.2118410
  14.8877820  68.3776470   2.3972590  14.9755860  69.7199040   3.0918930
   6.7897860  63.4701410  17.6313250   6.0243530  64.0386410  17.5467920
   6.9713820  63.1777620  16.7381480   9.8786270  63.8464640   2.2566010
   9.3296370  64.2933940   2.9008750  10.5005530  63.3413890   2.7803680
  13.9321210  65.2006740  18.1888270  14.6730680  65.5382500  17.6855730
  13.1693890  65.3698800  17.6358040   1.7683000  60.2060010  18.9927800
   1.8088340  59.9073880  19.9013030   2.6228500  60.6067620  18.8335320
   5.5461390  62.8055560   4.1531310   5.9677810  62.6395430   4.9962700
   5.6712230  61.9955790   3.6586450   3.7088810  58.7852110  16.9602290
   3.1785270  58.2943060  16.3325630   4.3776880  59.2136310  16.4260220
  12.6066870  63.2521570  16.7243480  13.0207890  63.4066650  17.5733900
  11.6717870  63.3776790  16.8869260  13.0789040  60.5917730  18.7282630
  13.6609810  59.8370050  18.6403110  13.2550810  61.1225170  17.9514110
   4.1961110  55.7514480  17.0399580   4.1017980  55.1335230  16.3150450
   3.6158500  56.4780770  16.8129490   6.9622550  54.3087720  14.0726970
   6.5139850  54.3311980  13.2272520   6.3287750  53.9106740  14.6697270
   7.3682100  63.2042050  14.6939410   7.7870210  64.0474780  14.5215650
   6.4490730  63.3414090  14.4646190   9.7046000  60.9358230  16.0777250
   9.8242210  60.3399370  16.8172090  10.5640000  60.9727920  15.6578550
  12.0433900  61.4895420  14.6539760  11.5169120  62.0138040  14.0504900
  12.3865240  62.1222810  15.2849490   5.2189520  69.5095060  15.8097140
   4.6810610  70.2341120  15.4905840   5.4723480  69.0325400  15.0194480
   6.4714770  57.4779580  17.3353070   7.0614460  57.1695430  18.0230890
   5.6535010  57.0059330  17.4912970  11.2908200  57.0945390  17.5686090
  10.6023720  56.4326930  17.5036080  12.0114220  56.6483660  18.0134550
  11.9208600  53.6897020   3.6276350  12.2010890  52.8464920   3.9835770
  11.1474330  53.9220130   4.1415100   8.0751730  70.7446270  16.0683790
   8.0010430  71.6481410  16.3756160   7.1730570  70.4258170  16.0405860
   8.6237060  69.9104780   3.6910150   9.5187850  70.2489750   3.7128910
   8.6554690  69.1884190   3.0634430   2.2633220  65.2831830   1.9197150
   2.7008090  65.8261500   2.5754730   2.7480950  64.4578780   1.9293490
   4.0740940  66.4029870   7.0319380   3.7736480  66.2794840   7.9323290
   3.9678430  65.5438460   6.6235110  15.6031410  68.4408450  16.3976350
  15.0033400  68.5001010  15.6540270  15.7325310  67.5013430  16.5273200
  16.2989320  62.9273750   4.2380260  17.0608230  63.4970400   4.3439950
  16.3143690  62.3600950   5.0088570  17.3049290  63.7823850   9.0822190
  17.6758120  62.9991170   8.6758160  17.9451220  64.4712950   8.9039490
  14.2883050  65.1660430  14.4952510  13.4742890  65.5957590  14.7578300
  14.6957250  65.7778840  13.8821560  12.7484100  56.2452970   2.6906410
  13.1668980  56.0583950   1.8503070  12.4420160  55.3932020   3.0009340
  16.2473830  61.1577110   6.3882210  15.8717430  60.3905040   5.9563500
  15.5176950  61.5399810   6.8757140  15.6373450  60.3048630  16.0221730
  15.4059540  60.0761380  15.1219680  15.8978000  61.2248180  15.9766620
  14.0761520  55.5305060  18.8001430  14.9531700  55.5388460  19.1835430
  14.0882360  54.7935900  18.1893780  15.5224790  59.3834600   9.6889450
  16.0462270  58.8897250   9.0579620  16.1084210  59.5184960  10.4337020
  15.7014510  59.4674470  13.2109000  14.7517220  59.4338010  13.3253990
  15.8827520  60.3774580  12.9758770  15.0124760  58.6407950   5.6281860
  15.5083880  58.4078820   6.4130740  14.8140830  57.8019790   5.2119500
  16.4411920  57.2768900   8.1619540  16.3311200  57.1224940   9.1001810
  17.2019510  56.7489840   7.9194950  14.7877640  53.2163030  14.6202540
  15.4249860  53.8297170  14.9861730  14.9352530  53.2523690  13.6751770
  17.4040680  55.8787480   4.0282390  16.6092180  55.8132600   4.5575300
  17.6083960  56.8138120   4.0167740  14.3459100  69.9179030   8.0220780
  14.9418170  69.5963600   7.3455200  14.6037250  69.4450850   8.8134050
   2.2521670  66.3496940  18.1711410   2.2091300  65.9789850  19.0525870
   2.3832680  67.2874510  18.3113230   5.9527700  67.9056530  13.7721130
   5.7119060  68.1731090  12.8851650   6.8930340  68.0762260  13.8271990
   8.1582120  54.3689220  17.5277640   8.0971010  54.9611050  18.2773050
   9.0982500  54.2615180  17.3827900  10.7956680  54.0259280  17.1669930
  11.4097090  54.3438570  16.5051010  11.3406240  53.5407870  17.7865790
  17.2131860  69.9250910  14.5731770  16.7190140  70.3219780  13.8558900
  16.6045150  69.3000120  14.9669050   2.0909700  69.2959190  15.2909190
   1.4970020  69.1643890  16.0299230   2.0833540  68.4597330  14.8251290
  11.5364720  52.5891420  13.4939220  10.6624560  52.9226530  13.2912150
  11.4275470  52.1164600  14.3191090  12.4436700  54.7962290  14.8780940
  12.1150060  53.9814050  14.4982670  13.3919000  54.7532100  14.7546630
  14.8971310  70.5674330  11.8518510  14.4374280  71.3190140  11.4776530
  14.2683770  69.8480800  11.7933310   5.3267030  68.8762570  11.0266640
   5.8432050  68.2649930  10.5014900   5.9764410  69.3791350  11.5177650
   8.0662530  69.7671060  11.8535620   8.3540340  69.5125360  10.9768630
   8.5785750  69.2148420  12.4441190   9.2839540  53.5061260  12.4332130
   8.5011330  53.9806760  12.7128890   8.9902470  52.6016090  12.3245310
  13.8360610  54.2084360  10.4781220  14.2768700  54.1529460   9.6302820
  13.5668200  55.1242370  10.5491400  15.6999180  53.8399600   8.4890040
  15.6387580  52.8960820   8.3421060  16.4791210  53.9479690   9.0343500
   7.1693760  55.9248010   7.9448160   6.3568270  55.5504900   7.6044040
   7.6735400  55.1693090   8.2469350  11.6718740  52.5890460   9.1831230
  12.2748110  53.1610670   9.6579750  10.9311730  53.1529900   8.9605130
  14.8153340  52.9912020   4.4571510  15.0103970  53.8895470   4.7238940
  14.0283210  52.7599100   4.9504460   3.0005100  54.3372790   3.4947820
   3.5297860  53.5502590   3.3655770   3.6333420  55.0163980   3.7283350
   5.1942940  54.0747930   6.5493210   4.5645680  53.3735240   6.7163340
   4.6548080  54.8352060   6.3326370   8.1334890  70.6887160  19.2203820
   9.0602200  70.4531430  19.2639780   8.1185320  71.5159160  18.7389850
  16.3679950  70.2312730   6.2178070  16.5432140  69.5450470   5.5738990
  15.6701520  70.7559780   5.8254740   5.3198500  53.3531910  18.9845700
   5.0382770  53.8565510  18.2206520   5.7018200  52.5553660  18.6187830
   4.2107600  70.6207570   3.7713380   4.9426420  70.3366850   3.2237270
   4.4701270  70.3820850   4.6612760   3.3722390  66.7372300   3.7759710
   2.7431270  67.2057400   4.3245540   3.4870220  65.8921520   4.2105900
  11.9213960  52.7685490  19.5626170  11.8079410  53.0880100  20.4577690
  12.7383700  53.1698000  19.2663450  14.7012450  69.9157020  19.0444860
  15.4937770  69.4206250  18.8370820  14.9945600  70.5947160  19.6520470
  10.8272110  42.0134470  83.7978360  10.7466160  41.0989080  83.5270070
  10.4136530  42.5101540  83.0918070   8.9590150  43.7913490  85.6787630
   8.1832250  43.3113930  85.9686200   9.6103080  43.1119140  85.5043790
   2.9755980  44.1033300  86.5563390   2.1440860  43.8482010  86.9559900
   3.5836960  44.1744070  87.2921310  12.9797580  48.1973680  84.4586760
  12.5179110  47.4260920  84.7873930  13.7923130  48.2239750  84.9639210
   2.9557240  48.1373390  86.7521410   3.2585280  47.2471130  86.5731630
   3.7000830  48.6943610  86.5243660   9.2060890  50.4831690  84.0790750
   8.5872330  50.9389190  83.5085190  10.0612670  50.6383150  83.6780450
   8.3999140  46.4670680  85.6857790   8.3307420  45.5260620  85.5246920
   9.1619000  46.5572090  86.2580360   9.4304310  39.2741060  85.9126720
   9.8069130  38.4012940  85.8000390   9.3323820  39.6099760  85.0217160
   3.5609320  37.6466690  81.3744160   3.6676070  38.5470420  81.6812920
   2.6501680  37.5984660  81.0838810  13.2128430  36.7691500  82.8455060
  14.0338050  36.2788070  82.8880540  13.2462510  37.3589160  83.5986900
   5.4017050  40.6153060  85.7069340   5.9095270  41.1134030  86.3474360
   5.9330290  39.8388260  85.5308700  17.5027980  38.7858250  89.4098690
  16.7980150  39.1739960  88.8913800  17.7685900  39.4808540  90.0119620
   3.6853150  35.2551620  89.9732760   3.6871590  35.7724010  89.1678660
   2.8557460  34.7781800  89.9502690  10.0724240  45.3670930  81.4722660
   9.4541510  45.8320380  80.9085380  10.5847490  46.0598410  81.8892170
   4.9356000  44.8946800  88.1506260   4.6025380  45.5215720  88.7927330
   5.1122680  45.4208680  87.3707930  13.4489910  38.7091880  85.6182600
  12.7445480  38.9976770  86.1985710  13.8102070  39.5191990  85.2582160
   3.3668480  36.9661580  87.9803210   3.7085290  37.8103630  87.6857080
   2.4284290  37.1145320  88.0968550   4.1475100  46.8627600  89.9655440
   4.7649100  47.5378680  89.6839890   3.2868220  47.2715580  89.8742940
  15.0652690  48.3267010  87.8810080  14.3816210  48.9966120  87.8726750
  15.6046980  48.5247660  87.1154940  16.5176830  38.1546670  86.0091810
  15.5701740  38.1885650  86.1407240  16.8426820  38.9685620  86.3941170
   7.0496370  34.4543850  84.3047800   7.3571350  33.8990740  83.5883300
   6.1197070  34.5888310  84.1220790  12.6011430  50.1711140  86.5955260
  12.6138590  49.7673430  85.7277520  12.0486650  50.9458430  86.4916690
  13.8956850  46.8927360  81.6845430  13.7853180  45.9501690  81.8094850
  13.8925100  47.2543000  82.5708190  11.9996870  45.0740980  87.9237870
  12.4165660  44.8601090  87.0891330  12.7236690  45.3313770  88.4946490
   9.4377130  42.5192680  81.0407920   8.5106410  42.4530060  81.2696390
   9.5901950  43.4572810  80.9263160   9.4246210  38.7909680  78.0375080
   8.4849880  38.9523640  78.1227540   9.7429470  39.5095360  77.4911070
  15.9458970  43.4728200  88.0154110  15.1177600  43.5421290  87.5404240
  16.5409450  44.0582510  87.5469940  13.4674420  44.0812980  81.5443170
  12.8486840  43.7432530  80.8969470  13.4498870  43.4372740  82.2522360
  12.9100980  40.2597520  88.9608980  12.4972160  41.0851230  89.2148970
  12.1776930  39.6742560  88.7685340   5.0433770  43.0457420  83.8227650
   4.6390770  42.3334670  83.3273550   5.1296890  42.7010660  84.7115690
   5.5115470  46.7324980  85.9866860   5.2143760  46.1270450  85.3074640
   6.4615290  46.7702290  85.8756220   3.7562390  39.8200630  87.6026690
   4.3076980  39.9295970  86.8279940   4.2705900  40.1938230  88.3181920
  13.6001080  50.3056850  89.6489960  13.1231640  51.1129040  89.4562570
  12.9162870  49.6535180  89.8016170   4.6033900  46.4706670  92.6374660
   3.7062430  46.6946640  92.8848060   4.6286770  46.5941610  91.6886060
  11.6439120  43.3199790  78.5515920  12.0832400  42.4822220  78.4053740
  12.3567540  43.9529190  78.6380060   3.4305120  43.3419990  91.2132030
   3.2912890  44.2142790  91.5819430   2.5486480  42.9992800  91.0679970
   9.7534500  48.2595860  82.5197160  10.1930410  49.0020190  82.1052550
   9.6921390  48.5022430  83.4436120   5.2285470  49.2841690  93.4217180
   5.2000900  49.6884640  92.5545610   5.0650440  48.3552050  93.2588780
  15.2256260  34.5742600  76.8656960  14.9128920  34.6669430  77.7656030
  15.9868730  35.1523630  76.8154390  16.5833540  47.2581640  91.8781360
  16.7096600  47.0193520  90.9598540  16.6254920  46.4266180  92.3503440
  10.4450280  50.9609640  90.4476170  10.9594950  50.8717650  91.2498600
   9.6019360  51.3069340  90.7404080  12.4204680  51.2464980  79.8760170
  12.2605820  50.9567920  80.7742000  12.2551390  50.4705110  79.3405400
   4.8993060  51.0263510  81.6531790   4.7235540  50.1099050  81.4399590
   4.0448800  51.3850800  81.8929590  12.1230810  48.7552540  78.4358170
  11.4295970  48.7529830  77.7760450  12.8653670  48.3311860  78.0052340
  11.6880740  50.3815250  82.5106660  12.1437690  49.6004630  82.8245280
  12.0273260  51.0922070  83.0547840  16.4357550  39.3114100  92.8431100
  15.8201820  39.8193770  92.3146560  16.1153970  38.4112430  92.7857040
   4.2102060  35.2837470  84.7057970   3.7670210  36.0647010  84.3742490
   4.7687050  35.6067360  85.4128910   8.4971870  38.1505990  90.3093290
   8.0351240  38.3589010  91.1213230   8.0949980  37.3365340  90.0063960
  13.4976380  39.3714940  91.4389950  12.6469970  39.0720690  91.7599020
  13.3378170  39.6156950  90.5273770  10.5926090  40.8716690  93.5388740
  10.9179500  40.0380440  93.1990970  11.3806420  41.3945210  93.6867070
   7.3260880  34.9048170  79.5863800   6.7015060  34.9008040  80.3117110
   7.2391000  34.0379130  79.1899770   6.2477960  35.8284800  86.5647570
   6.5450290  36.7347630  86.4839590   6.7963520  35.3403580  85.9507140
   4.0016280  40.4071040  82.4339220   3.7757200  40.1908210  83.3385840
   3.2208810  40.8399500  82.0885190  11.2314040  40.4134410  81.0329870
  10.6322930  41.1370210  80.8493490  11.7793650  40.3511190  80.2506320
   6.4415490  41.3056620  93.0999490   6.3459090  40.3651350  92.9499890
   7.2847470  41.5271690  92.7047560   9.8378910  39.0497950  83.0633150
  10.2308480  39.3670150  82.2501840  10.1995760  38.1709830  83.1777670
  10.4234050  41.6403700  87.1583930   9.6915170  42.1490510  87.5074030
  10.0258390  40.8233680  86.8572710   6.8611440  38.3157900  85.5636420
   6.8647500  37.8747850  84.7140960   7.7562560  38.6375230  85.6708240
   2.7113820  38.1984390  84.5230630   2.3713870  38.6759620  85.2797680
   1.9491140  37.7449510  84.1631730   6.9231590  39.3169980  78.5543180
   7.0444410  39.2756460  79.5029000   6.5380100  40.1794130  78.3989910
  10.8859960  37.0937380  86.5706870  10.9032700  37.5446030  87.4148720
  10.6375540  36.1943020  86.7840310   5.9353090  41.6271120  77.9526480
   5.3669990  41.1789370  77.3262390   6.6442090  41.9863900  77.4191630
  14.3130710  34.5069560  92.4093250  14.6376480  33.7759220  92.9351230
  14.3487220  34.1883200  91.5074240   7.1619410  42.3759680  87.3101830
   7.5289540  41.9018250  88.0563170   6.9724470  43.2501250  87.6510170
   4.9518780  41.4168320  89.6286040   4.6475850  42.2960300  89.8536400
   5.9065240  41.4768110  89.6643480   3.4800570  45.6229310  80.2252890
   2.7062830  45.0826930  80.0651610   4.2095200  45.1035920  79.8870650
  14.2388550  44.6194670  86.0179280  14.9587670  45.1149960  85.6275390
  14.0370370  43.9412560  85.3733150   9.6998490  36.0132630  80.1608670
   8.8863100  35.5145800  80.0853980   9.5060440  36.8530880  79.7445020
   9.6207350  44.6903730  91.9048280   9.5544660  43.7699400  91.6505870
   8.9912490  44.7879170  92.6192920  12.4146880  40.3852280  78.4570830
  13.3026500  40.6969510  78.2822170  12.3851970  39.5124530  78.0651410
   3.5237970  45.2909690  83.8631700   4.0416640  44.4877950  83.8088590
   3.0721990  45.2288830  84.7048530   8.4107470  46.5575970  79.1359000
   8.7523170  47.3018200  78.6402320   7.5820180  46.8707090  79.4983830
   4.2095630  42.7155300  93.6596950   3.9095770  42.8612480  92.7624770
   4.9806870  42.1560590  93.5670340   9.5524080  47.5124300  91.6552080
   9.5668620  46.5805260  91.4370990   8.8449180  47.5984060  92.2941850
  14.6861150  41.6964120  77.9250690  14.6024870  42.1278340  77.0747130
  15.4055340  42.1562470  78.3577510  15.7635290  44.1531640  91.0020660
  15.0383480  44.7460420  90.8050050  16.2910750  44.1455180  90.2034030
  15.7148400  48.5506380  80.6532820  15.0724560  47.8962000  80.9276540
  15.3279060  48.9561470  79.8773490  11.2934880  45.8791810  84.5004510
  11.6458700  45.2819940  83.8405880  10.4097210  45.5536040  84.6712760
   7.3798160  46.6389500  81.9074920   8.0669290  47.1858710  82.2882510
   6.5930580  47.1830230  81.9424530   6.6825370  43.6435530  81.5200280
   7.1388150  44.4540780  81.7460470   6.3313580  43.3258670  82.3518770
   8.9857980  49.1541870  88.7492580   9.6300200  49.3601250  89.4266000
   9.3487420  48.3930270  88.2963430   2.5837150  33.9873180  81.9922800
   2.4551780  33.9791080  82.9407720   1.7599170  34.3256270  81.6413810
  10.2590060  47.1574220  87.4670030  10.9012290  46.4567380  87.5802200
  10.7839410  47.9372660  87.2866920  14.1045780  47.4422840  77.1909170
  13.8783360  46.7253280  77.7833810  13.7141980  47.1935280  76.3530920
  12.0327680  47.9569120  90.6706090  12.3683920  48.5435810  91.3484010
  11.1128020  47.8261830  90.9003880  13.6862030  45.3594780  78.8523330
  13.3983730  45.8207470  79.6401210  14.4814200  44.8992550  79.1207550
   5.9030430  48.8520900  78.7827300   5.8940530  49.5850590  78.1671810
   4.9828790  48.6052480  78.8754260  11.0769860  38.2386610  89.2030950
  11.4450680  37.4181820  89.5310520  10.2168060  38.2988500  89.6186600
  14.4431890  37.1943550  80.0118510  13.8145050  37.2989220  79.2976740
  13.9483810  37.4140330  80.8012390   8.8890030  48.9149140  77.4452490
   8.9902010  48.7113130  76.5154470   7.9891770  48.6607420  77.6500270
   6.4115920  39.4729500  81.4276390   5.7032070  39.9415840  81.8690000
   6.6960400  38.8151510  82.0621580   8.0371850  40.8926200  89.4268920
   8.5357100  41.3672020  90.0920770   8.1794800  39.9689720  89.6338950
  10.4431350  36.1980160  82.8672180  10.3199130  36.2166290  81.9181690
  11.3915910  36.2459100  82.9870580   7.5308140  51.4335460  82.1400160
   7.7849640  51.3956850  81.2179530   6.5820620  51.3068790  82.1328410
   4.6150940  37.7814580  78.8027100   5.4641470  38.2184730  78.7367290
   4.2482210  38.0934840  79.6299160  15.2438710  37.1094160  90.2697310
  14.7412310  37.8499560  90.6091120  16.0595370  37.4978160  89.9534100
  13.5360720  42.3527340  83.7158670  12.5950860  42.3677570  83.8906360
  13.8504790  41.5663300  84.1618970   3.5142360  44.0346940  77.2762630
   4.2805630  43.9228300  77.8388060   3.5917050  43.3384910  76.6239400
   2.2089120  41.4672010  77.9595520   2.2892710  40.5199520  78.0712920
   3.1008870  41.7978890  78.0656180  15.5386300  49.5236190  85.3912930
  15.6633720  50.3467360  85.8636740  16.4051860  49.3126920  85.0437080
   3.0103830  51.6167400  85.0630060   3.7466310  51.0682860  85.3338630
   3.3944750  52.4823410  84.9236050   6.1206140  50.7897710  76.8855630
   6.9134750  51.0786540  76.4337420   5.6010490  50.3589880  76.2068110
  12.2827110  50.6373630  92.8100460  13.2348860  50.5531650  92.7600700
  12.1355330  51.3015340  93.4834250  15.1736310  50.0167840  78.3092370
  14.8877820  49.6032980  77.4946550  14.9755860  50.9455550  78.1892890
   6.6383540  46.0101120  76.7497980   6.5334180  45.3953470  77.4759360
   6.4707760  45.4867010  75.9660990   6.7897860  44.6957920  92.7287210
   6.0243530  45.2642920  92.6441880   6.9713820  44.4034130  91.8355440
   9.8786270  45.0721150  77.3539970   9.3296370  45.5190450  77.9982710
  10.5005530  44.5670400  77.8777640  13.9321210  46.4263250  93.2862230
  14.6730680  46.7639010  92.7829690  13.1693890  46.5955310  92.7332000
   5.5461390  44.0312070  79.2505270   5.9677810  43.8651940  80.0936660
   5.6712230  43.2212300  78.7560410   3.7088810  40.0108620  92.0576250
   3.1785270  39.5199570  91.4299590   4.3776880  40.4392820  91.5234180
   8.0589030  43.0549680  76.4982370   8.5794690  42.3398700  76.1323520
   8.7057430  43.6935550  76.7982880  12.6066870  44.4778080  91.8217440
  13.0207890  44.6323160  92.6707860  11.6717870  44.6033300  91.9843220
  13.0789040  41.8174240  93.8256590  13.6609810  41.0626560  93.7377070
  13.2550810  42.3481680  93.0488070   4.1961110  36.9770990  92.1373540
   4.1017980  36.3591740  91.4124410   3.6158500  37.7037280  91.9103450
   6.9622550  35.5344230  89.1700930   6.5139850  35.5568490  88.3246480
   6.3287750  35.1363250  89.7671230   7.3682100  44.4298560  89.7913370
   7.7870210  45.2731290  89.6189610   6.4490730  44.5670600  89.5620150
   9.7046000  42.1614740  91.1751210   9.8242210  41.5655880  91.9146050
  10.5640000  42.1984430  90.7552510  12.0433900  42.7151930  89.7513720
  11.5169120  43.2394550  89.1478860  12.3865240  43.3479320  90.3823450
   4.4420290  40.1045300  76.1963430   4.2409350  39.2412660  76.5576770
   4.2712340  40.0178660  75.2585030   5.2189520  50.7351570  90.9071100
   4.6810610  51.4597630  90.5879800   5.4723480  50.2581910  90.1168440
   6.4714770  38.7036090  92.4327030   7.0614460  38.3951940  93.1204850
   5.6535010  38.2315840  92.5886930  11.2908200  38.3201900  92.6660050
  10.6023720  37.6583440  92.6010040  12.0114220  37.8740170  93.1108510
  11.9208600  34.9153530  78.7250310  12.2010890  34.0721430  79.0809730
  11.1474330  35.1476640  79.2389060   3.2403090  37.2045920  76.1841310
   3.5428990  37.2113350  75.2760460   3.9797680  36.8543780  76.6808970
   8.0751730  51.9702780  91.1657750   8.0010430  52.8737920  91.4730120
   7.1730570  51.6514680  91.1379820   6.4588020  36.1480540  77.1697510
   6.1110020  35.4704530  76.5899960   6.6600790  35.6870050  77.9840900
   8.6237060  51.1361290  78.7884110   9.5187850  51.4746260  78.8102870
   8.6554690  50.4140700  78.1608390   2.2633220  46.5088340  77.0171110
   2.7008090  47.0518010  77.6728690   2.7480950  45.6835290  77.0267450
   4.0740940  47.6286380  82.1293340   3.7736480  47.5051350  83.0297250
   3.9678430  46.7694970  81.7209070  15.6031410  49.6664960  91.4950310
  15.0033400  49.7257520  90.7514230  15.7325310  48.7269940  91.6247160
  16.8432860  47.4082780  76.8320020  16.0125820  47.4759430  77.3027250
  17.0204690  48.2986900  76.5286880  16.2989320  44.1530260  79.3354220
  17.0608230  44.7226910  79.4413910  16.3143690  43.5857460  80.1062530
  17.3049290  45.0080360  84.1796150  17.6758120  44.2247680  83.7732120
  17.9451220  45.6969460  84.0013450  14.2883050  46.3916940  89.5926470
  13.4742890  46.8214100  89.8552260  14.6957250  47.0035350  88.9795520
  16.3508490  44.4464630  76.4926740  16.6257330  45.3543510  76.3645960
  16.1619230  44.3827160  77.4288730  12.7484100  37.4709480  77.7880370
  13.1668980  37.2840460  76.9477030  12.4420160  36.6188530  78.0983300
  16.2473830  42.3833620  81.4856170  15.8717430  41.6161550  81.0537460
  15.5176950  42.7656320  81.9731100  15.6373450  41.5305140  91.1195690
  15.4059540  41.3017890  90.2193640  15.8978000  42.4504690  91.0740580
  15.5224790  40.6091110  84.7863410  16.0462270  40.1153760  84.1553580
  16.1084210  40.7441470  85.5310980  15.7014510  40.6930980  88.3082960
  14.7517220  40.6594520  88.4227950  15.8827520  41.6031090  88.0732730
  15.0124760  39.8664460  80.7255820  15.5083880  39.6335330  81.5104700
  14.8140830  39.0276300  80.3093460  16.4411920  38.5025410  83.2593500
  16.3311200  38.3481450  84.1975770  17.2019510  37.9746350  83.0168910
  14.7877640  34.4419540  89.7176500  15.4249860  35.0553680  90.0835690
  14.9352530  34.4780200  88.7725730  17.3302190  36.3333330  76.4999640
  18.2551500  36.2014510  76.2917930  17.3077980  36.4126150  77.4536090
  17.4040680  37.1043990  79.1256350  16.6092180  37.0389110  79.6549260
  17.6083960  38.0394630  79.1141700  14.3459100  51.1435540  83.1194740
  14.9418170  50.8220110  82.4429160  14.6037250  50.6707360  83.9108010
   5.9527700  49.1313040  88.8695090   5.7119060  49.3987600  87.9825610
   6.8930340  49.3018770  88.9245950   8.1582120  35.5945730  92.6251600
   8.0971010  36.1867560  93.3747010   9.0982500  35.4871690  92.4801860
  10.7956680  35.2515790  92.2643890  11.4097090  35.5695080  91.6024970
  11.3406240  34.7664380  92.8839750  17.2131860  51.1507420  89.6705730
  16.7190140  51.5476290  88.9532860  16.6045150  50.5256630  90.0643010
   2.0909700  50.5215700  90.3883150   1.4970020  50.3900400  91.1273190
   2.0833540  49.6853840  89.9225250  11.5364720  33.8147930  88.5913180
  10.6624560  34.1483040  88.3886110  11.4275470  33.3421110  89.4165050
  12.4436700  36.0218800  89.9754900  12.1150060  35.2070560  89.5956630
  13.3919000  35.9788610  89.8520590  14.8971310  51.7930840  86.9492470
  14.4374280  52.5446650  86.5750490  14.2683770  51.0737310  86.8907270
   5.3267030  50.1019080  86.1240600   5.8432050  49.4906440  85.5988860
   5.9764410  50.6047860  86.6151610   8.0662530  50.9927570  86.9509580
   8.3540340  50.7381870  86.0742590   8.5785750  50.4404930  87.5415150
   9.2839540  34.7317770  87.5306090   8.5011330  35.2063270  87.8102850
   8.9902470  33.8272600  87.4219270  13.8360610  35.4340870  85.5755180
  14.2768700  35.3785970  84.7276780  13.5668200  36.3498880  85.6465360
  15.6999180  35.0656110  83.5864000  15.6387580  34.1217330  83.4395020
  16.4791210  35.1736200  84.1317460   7.1693760  37.1504520  83.0422120
   6.3568270  36.7761410  82.7018000   7.6735400  36.3949600  83.3443310
  11.6718740  33.8146970  84.2805190  12.2748110  34.3867180  84.7553710
  10.9311730  34.3786410  84.0579090  14.8153340  34.2168530  79.5545470
  15.0103970  35.1151980  79.8212900  14.0283210  33.9855610  80.0478420
   3.0005100  35.5629300  78.5921780   3.5297860  34.7759100  78.4629730
   3.6333420  36.2420490  78.8257310   5.1942940  35.3004440  81.6467170
   4.5645680  34.5991750  81.8137300   4.6548080  36.0608570  81.4300330
  16.3679950  51.4569240  81.3152030  16.5432140  50.7706980  80.6712950
  15.6701520  51.9816290  80.9228700   4.2107600  51.8464080  78.8687340
   4.9426420  51.5623360  78.3211230   4.4701270  51.6077360  79.7586720
   3.3722390  47.9628810  78.8733670   2.7431270  48.4313910  79.4219500
   3.4870220  47.1178030  79.3079860  10.8272110  42.0134470  65.0234870
  10.7466160  41.0989080  64.7526580  10.4136530  42.5101540  64.3174580
   8.9590150  43.7913490  66.9044140   8.1832250  43.3113930  67.1942710
   9.6103080  43.1119140  66.7300300   2.9755980  44.1033300  67.7819900
   2.1440860  43.8482010  68.1816410   3.5836960  44.1744070  68.5177820
   2.9557240  48.1373390  67.9777920   3.2585280  47.2471130  67.7988140
   3.7000830  48.6943610  67.7500170   9.2060890  50.4831690  65.3047260
   8.5872330  50.9389190  64.7341700  10.0612670  50.6383150  64.9036960
   8.3999140  46.4670680  66.9114300   8.3307420  45.5260620  66.7503430
   9.1619000  46.5572090  67.4836870   9.4304310  39.2741060  67.1383230
   9.8069130  38.4012940  67.0256900   9.3323820  39.6099760  66.2473670
   3.5609320  37.6466690  62.6000670   3.6676070  38.5470420  62.9069430
   2.6501680  37.5984660  62.3095320  13.2128430  36.7691500  64.0711570
  14.0338050  36.2788070  64.1137050  13.2462510  37.3589160  64.8243410
   5.4017050  40.6153060  66.9325850   5.9095270  41.1134030  67.5730870
   5.9330290  39.8388260  66.7565210  17.5027980  38.7858250  70.6355200
  16.7980150  39.1739960  70.1170310  17.7685900  39.4808540  71.2376130
   3.6853150  35.2551620  71.1989270   3.6871590  35.7724010  70.3935170
   2.8557460  34.7781800  71.1759200  10.0724240  45.3670930  62.6979170
   9.4541510  45.8320380  62.1341890  10.5847490  46.0598410  63.1148680
   4.9356000  44.8946800  69.3762770   4.6025380  45.5215720  70.0183840
   5.1122680  45.4208680  68.5964440  13.4489910  38.7091880  66.8439110
  12.7445480  38.9976770  67.4242220  13.8102070  39.5191990  66.4838670
   3.3668480  36.9661580  69.2059720   3.7085290  37.8103630  68.9113590
   2.4284290  37.1145320  69.3225060   4.1475100  46.8627600  71.1911950
   4.7649100  47.5378680  70.9096400   3.2868220  47.2715580  71.0999450
  15.0652690  48.3267010  69.1066590  14.3816210  48.9966120  69.0983260
  15.6046980  48.5247660  68.3411450  16.5176830  38.1546670  67.2348320
  15.5701740  38.1885650  67.3663750  16.8426820  38.9685620  67.6197680
   7.0496370  34.4543850  65.5304310   7.3571350  33.8990740  64.8139810
   6.1197070  34.5888310  65.3477300  12.6011430  50.1711140  67.8211770
  12.6138590  49.7673430  66.9534030  12.0486650  50.9458430  67.7173200
  11.9996870  45.0740980  69.1494380  12.4165660  44.8601090  68.3147840
  12.7236690  45.3313770  69.7203000   9.4377130  42.5192680  62.2664430
   8.5106410  42.4530060  62.4952900   9.5901950  43.4572810  62.1519670
   9.4246210  38.7909680  59.2631590   8.4849880  38.9523640  59.3484050
   9.7429470  39.5095360  58.7167580  15.9458970  43.4728200  69.2410620
  15.1177600  43.5421290  68.7660750  16.5409450  44.0582510  68.7726450
  13.4674420  44.0812980  62.7699680  12.8486840  43.7432530  62.1225980
  13.4498870  43.4372740  63.4778870  12.9100980  40.2597520  70.1865490
  12.4972160  41.0851230  70.4405480  12.1776930  39.6742560  69.9941850
   5.0433770  43.0457420  65.0484160   4.6390770  42.3334670  64.5530060
   5.1296890  42.7010660  65.9372200   5.5115470  46.7324980  67.2123370
   5.2143760  46.1270450  66.5331150   6.4615290  46.7702290  67.1012730
   3.7562390  39.8200630  68.8283200   4.3076980  39.9295970  68.0536450
   4.2705900  40.1938230  69.5438430  13.6001080  50.3056850  70.8746470
  13.1231640  51.1129040  70.6819080  12.9162870  49.6535180  71.0272680
   4.6033900  46.4706670  73.8631170   3.7062430  46.6946640  74.1104570
   4.6286770  46.5941610  72.9142570  11.6439120  43.3199790  59.7772430
  12.0832400  42.4822220  59.6310250  12.3567540  43.9529190  59.8636570
   3.4305120  43.3419990  72.4388540   3.2912890  44.2142790  72.8075940
   2.5486480  42.9992800  72.2936480   9.7534500  48.2595860  63.7453670
  10.1930410  49.0020190  63.3309060   9.6921390  48.5022430  64.6692630
   5.2285470  49.2841690  74.6473690   5.2000900  49.6884640  73.7802120
   5.0650440  48.3552050  74.4845290  15.2256260  34.5742600  58.0913470
  14.9128920  34.6669430  58.9912540  15.9868730  35.1523630  58.0410900
  17.1800290  50.0668790  75.9437860  17.6560010  50.5451680  76.6226940
  17.8007450  49.9986280  75.2183360  16.5833540  47.2581640  73.1037870
  16.7096600  47.0193520  72.1855050  16.6254920  46.4266180  73.5759950
  10.4450280  50.9609640  71.6732680  10.9594950  50.8717650  72.4755110
   9.6019360  51.3069340  71.9660590  12.4204680  51.2464980  61.1016680
  12.2605820  50.9567920  61.9998510  12.2551390  50.4705110  60.5661910
   4.8993060  51.0263510  62.8788300   4.7235540  50.1099050  62.6656100
   4.0448800  51.3850800  63.1186100  12.1230810  48.7552540  59.6614680
  11.4295970  48.7529830  59.0016960  12.8653670  48.3311860  59.2308850
  11.6880740  50.3815250  63.7363170  12.1437690  49.6004630  64.0501790
  12.0273260  51.0922070  64.2804350  16.4357550  39.3114100  74.0687610
  15.8201820  39.8193770  73.5403070  16.1153970  38.4112430  74.0113550
   4.2102060  35.2837470  65.9314480   3.7670210  36.0647010  65.5999000
   4.7687050  35.6067360  66.6385420   8.4971870  38.1505990  71.5349800
   8.0351240  38.3589010  72.3469740   8.0949980  37.3365340  71.2320470
  13.4976380  39.3714940  72.6646460  12.6469970  39.0720690  72.9855530
  13.3378170  39.6156950  71.7530280  10.5926090  40.8716690  74.7645250
  10.9179500  40.0380440  74.4247480  11.3806420  41.3945210  74.9123580
   7.3260880  34.9048170  60.8120310   6.7015060  34.9008040  61.5373620
   7.2391000  34.0379130  60.4156280   6.2477960  35.8284800  67.7904080
   6.5450290  36.7347630  67.7096100   6.7963520  35.3403580  67.1763650
   4.0016280  40.4071040  63.6595730   3.7757200  40.1908210  64.5642350
   3.2208810  40.8399500  63.3141700  11.2314040  40.4134410  62.2586380
  10.6322930  41.1370210  62.0750000  11.7793650  40.3511190  61.4762830
   6.4415490  41.3056620  74.3256000   6.3459090  40.3651350  74.1756400
   7.2847470  41.5271690  73.9304070   9.8378910  39.0497950  64.2889660
  10.2308480  39.3670150  63.4758350  10.1995760  38.1709830  64.4034180
   8.1471080  37.8005260  75.5486520   7.4569400  37.6077460  76.1832610
   8.8903380  38.0839900  76.0810820  10.4234050  41.6403700  68.3840440
   9.6915170  42.1490510  68.7330540  10.0258390  40.8233680  68.0829220
   6.8611440  38.3157900  66.7892930   6.8647500  37.8747850  65.9397470
   7.7562560  38.6375230  66.8964750   2.7113820  38.1984390  65.7487140
   2.3713870  38.6759620  66.5054190   1.9491140  37.7449510  65.3888240
   6.9231590  39.3169980  59.7799690   7.0444410  39.2756460  60.7285510
   6.5380100  40.1794130  59.6246420  10.8859960  37.0937380  67.7963380
  10.9032700  37.5446030  68.6405230  10.6375540  36.1943020  68.0096820
   5.9353090  41.6271120  59.1782990   5.3669990  41.1789370  58.5518900
   6.6442090  41.9863900  58.6448140  14.3130710  34.5069560  73.6349760
  14.6376480  33.7759220  74.1607740  14.3487220  34.1883200  72.7330750
   7.1619410  42.3759680  68.5358340   7.5289540  41.9018250  69.2819680
   6.9724470  43.2501250  68.8766680   4.9518780  41.4168320  70.8542550
   4.6475850  42.2960300  71.0792910   5.9065240  41.4768110  70.8899990
   3.4800570  45.6229310  61.4509400   2.7062830  45.0826930  61.2908120
   4.2095200  45.1035920  61.1127160  14.2388550  44.6194670  67.2435790
  14.9587670  45.1149960  66.8531900  14.0370370  43.9412560  66.5989660
   9.6998490  36.0132630  61.3865180   8.8863100  35.5145800  61.3110490
   9.5060440  36.8530880  60.9701530   9.6207350  44.6903730  73.1304790
   9.5544660  43.7699400  72.8762380   8.9912490  44.7879170  73.8449430
  12.4146880  40.3852280  59.6827340  13.3026500  40.6969510  59.5078680
  12.3851970  39.5124530  59.2907920   3.5237970  45.2909690  65.0888210
   4.0416640  44.4877950  65.0345100   3.0721990  45.2288830  65.9305040
   8.4107470  46.5575970  60.3615510   8.7523170  47.3018200  59.8658830
   7.5820180  46.8707090  60.7240340   4.2095630  42.7155300  74.8853460
   3.9095770  42.8612480  73.9881280   4.9806870  42.1560590  74.7926850
   9.5524080  47.5124300  72.8808590   9.5668620  46.5805260  72.6627500
   8.8449180  47.5984060  73.5198360  14.6861150  41.6964120  59.1507200
  14.6024870  42.1278340  58.3003640  15.4055340  42.1562470  59.5834020
  15.7635290  44.1531640  72.2277170  15.0383480  44.7460420  72.0306560
  16.2910750  44.1455180  71.4290540  11.2934880  45.8791810  65.7261020
  11.6458700  45.2819940  65.0662390  10.4097210  45.5536040  65.8969270
   7.3798160  46.6389500  63.1331430   8.0669290  47.1858710  63.5139020
   6.5930580  47.1830230  63.1681040   6.6825370  43.6435530  62.7456790
   7.1388150  44.4540780  62.9716980   6.3313580  43.3258670  63.5775280
   8.9857980  49.1541870  69.9749090   9.6300200  49.3601250  70.6522510
   9.3487420  48.3930270  69.5219940   2.5837150  33.9873180  63.2179310
   2.4551780  33.9791080  64.1664230   1.7599170  34.3256270  62.8670320
  10.2590060  47.1574220  68.6926540  10.9012290  46.4567380  68.8058710
  10.7839410  47.9372660  68.5123430  12.0327680  47.9569120  71.8962600
  12.3683920  48.5435810  72.5740520  11.1128020  47.8261830  72.1260390
   7.8616260  48.0060450  75.0650660   7.5413130  47.2869690  75.6096350
   7.1874620  48.6815520  75.1386720   5.9030430  48.8520900  60.0083810
   5.8940530  49.5850590  59.3928320   4.9828790  48.6052480  60.1010770
  11.0769860  38.2386610  70.4287460  11.4450680  37.4181820  70.7567030
  10.2168060  38.2988500  70.8443110  14.4431890  37.1943550  61.2375020
  13.8145050  37.2989220  60.5233250  13.9483810  37.4140330  62.0268900
   8.8890030  48.9149140  58.6709000   8.9902010  48.7113130  57.7410980
   7.9891770  48.6607420  58.8756780   6.4115920  39.4729500  62.6532900
   5.7032070  39.9415840  63.0946510   6.6960400  38.8151510  63.2878090
   8.0371850  40.8926200  70.6525430   8.5357100  41.3672020  71.3177280
   8.1794800  39.9689720  70.8595460  10.4431350  36.1980160  64.0928690
  10.3199130  36.2166290  63.1438200  11.3915910  36.2459100  64.2127090
   7.5308140  51.4335460  63.3656670   7.7849640  51.3956850  62.4436040
   6.5820620  51.3068790  63.3584920   4.6150940  37.7814580  60.0283610
   5.4641470  38.2184730  59.9623800   4.2482210  38.0934840  60.8555670
  15.2438710  37.1094160  71.4953820  14.7412310  37.8499560  71.8347630
  16.0595370  37.4978160  71.1790610  13.5360720  42.3527340  64.9415180
  12.5950860  42.3677570  65.1162870  13.8504790  41.5663300  65.3875480
   3.5142360  44.0346940  58.5019140   4.2805630  43.9228300  59.0644570
   3.5917050  43.3384910  57.8495910   2.2089120  41.4672010  59.1852030
   2.2892710  40.5199520  59.2969430   3.1008870  41.7978890  59.2912690
  15.5386300  49.5236190  66.6169440  15.6633720  50.3467360  67.0893250
  16.4051860  49.3126920  66.2693590   3.0103830  51.6167400  66.2886570
   3.7466310  51.0682860  66.5595140   3.3944750  52.4823410  66.1492560
   2.0162110  50.8013470  75.4772150   2.8174840  51.1225520  75.8907550
   1.5013930  50.4409050  76.1992060   6.1206140  50.7897710  58.1112140
   6.9134750  51.0786540  57.6593930   5.6010490  50.3589880  57.4324620
  10.8526740  46.9093340  75.4247560  10.2464900  46.9324940  74.6843310
  10.5480850  46.1776380  75.9614810  12.2827110  50.6373630  74.0356970
  13.2348860  50.5531650  73.9857210  12.1355330  51.3015340  74.7090760
   6.6383540  46.0101120  57.9754490   6.5334180  45.3953470  58.7015870
   6.4707760  45.4867010  57.1917500   6.7897860  44.6957920  73.9543720
   6.0243530  45.2642920  73.8698390   6.9713820  44.4034130  73.0611950
   9.8786270  45.0721150  58.5796480   9.3296370  45.5190450  59.2239220
  10.5005530  44.5670400  59.1034150  13.9321210  46.4263250  74.5118740
  14.6730680  46.7639010  74.0086200  13.1693890  46.5955310  73.9588510
   1.7683000  41.4316520  75.3158270   1.8088340  41.1330390  76.2243500
   2.6228500  41.8324130  75.1565790   5.5461390  44.0312070  60.4761780
   5.9677810  43.8651940  61.3193170   5.6712230  43.2212300  59.9816920
   3.7088810  40.0108620  73.2832760   3.1785270  39.5199570  72.6556100
   4.3776880  40.4392820  72.7490690   8.0589030  43.0549680  57.7238880
   8.5794690  42.3398700  57.3580030   8.7057430  43.6935550  58.0239390
  12.6066870  44.4778080  73.0473950  13.0207890  44.6323160  73.8964370
  11.6717870  44.6033300  73.2099730  13.0789040  41.8174240  75.0513100
  13.6609810  41.0626560  74.9633580  13.2550810  42.3481680  74.2744580
   4.1961110  36.9770990  73.3630050   4.1017980  36.3591740  72.6380920
   3.6158500  37.7037280  73.1359960   6.9622550  35.5344230  70.3957440
   6.5139850  35.5568490  69.5502990   6.3287750  35.1363250  70.9927740
   7.3682100  44.4298560  71.0169880   7.7870210  45.2731290  70.8446120
   6.4490730  44.5670600  70.7876660   9.7046000  42.1614740  72.4007720
   9.8242210  41.5655880  73.1402560  10.5640000  42.1984430  71.9809020
  12.0433900  42.7151930  70.9770230  11.5169120  43.2394550  70.3735370
  12.3865240  43.3479320  71.6079960   4.4420290  40.1045300  57.4219940
   4.2409350  39.2412660  57.7833280   4.2712340  40.0178660  56.4841540
   5.2189520  50.7351570  72.1327610   4.6810610  51.4597630  71.8136310
   5.4723480  50.2581910  71.3424950   6.4714770  38.7036090  73.6583540
   7.0614460  38.3951940  74.3461360   5.6535010  38.2315840  73.8143440
  11.2908200  38.3201900  73.8916560  10.6023720  37.6583440  73.8266550
  12.0114220  37.8740170  74.3365020  11.9208600  34.9153530  59.9506820
  12.2010890  34.0721430  60.3066240  11.1474330  35.1476640  60.4645570
   3.2403090  37.2045920  57.4097820   3.5428990  37.2113350  56.5016970
   3.9797680  36.8543780  57.9065480   8.0751730  51.9702780  72.3914260
   8.0010430  52.8737920  72.6986630   7.1730570  51.6514680  72.3636330
   6.4588020  36.1480540  58.3954020   6.1110020  35.4704530  57.8156470
   6.6600790  35.6870050  59.2097410   8.6237060  51.1361290  60.0140620
   9.5187850  51.4746260  60.0359380   8.6554690  50.4140700  59.3864900
   2.2633220  46.5088340  58.2427620   2.7008090  47.0518010  58.8985200
   2.7480950  45.6835290  58.2523960   4.0740940  47.6286380  63.3549850
   3.7736480  47.5051350  64.2553760   3.9678430  46.7694970  62.9465580
  15.6031410  49.6664960  72.7206820  15.0033400  49.7257520  71.9770740
  15.7325310  48.7269940  72.8503670  16.8432860  47.4082780  58.0576530
  16.0125820  47.4759430  58.5283760  17.0204690  48.2986900  57.7543390
  16.2989320  44.1530260  60.5610730  17.0608230  44.7226910  60.6670420
  16.3143690  43.5857460  61.3319040  17.3049290  45.0080360  65.4052660
  17.6758120  44.2247680  64.9988630  17.9451220  45.6969460  65.2269960
  14.2883050  46.3916940  70.8182980  13.4742890  46.8214100  71.0808770
  14.6957250  47.0035350  70.2052030  16.3508490  44.4464630  57.7183250
  16.6257330  45.3543510  57.5902470  16.1619230  44.3827160  58.6545240
  12.7484100  37.4709480  59.0136880  13.1668980  37.2840460  58.1733540
  12.4420160  36.6188530  59.3239810  16.2473830  42.3833620  62.7112680
  15.8717430  41.6161550  62.2793970  15.5176950  42.7656320  63.1987610
  15.6373450  41.5305140  72.3452200  15.4059540  41.3017890  71.4450150
  15.8978000  42.4504690  72.2997090  14.0761520  36.7561570  75.1231900
  14.9531700  36.7644970  75.5065900  14.0882360  36.0192410  74.5124250
  15.5224790  40.6091110  66.0119920  16.0462270  40.1153760  65.3810090
  16.1084210  40.7441470  66.7567490  15.7014510  40.6930980  69.5339470
  14.7517220  40.6594520  69.6484460  15.8827520  41.6031090  69.2989240
  15.0124760  39.8664460  61.9512330  15.5083880  39.6335330  62.7361210
  14.8140830  39.0276300  61.5349970  16.4411920  38.5025410  64.4850010
  16.3311200  38.3481450  65.4232280  17.2019510  37.9746350  64.2425420
  14.7877640  34.4419540  70.9433010  15.4249860  35.0553680  71.3092200
  14.9352530  34.4780200  69.9982240  17.3302190  36.3333330  57.7256150
  18.2551500  36.2014510  57.5174440  17.3077980  36.4126150  58.6792600
  17.4040680  37.1043990  60.3512860  16.6092180  37.0389110  60.8805770
  17.6083960  38.0394630  60.3398210   2.2521670  47.5753450  74.4941880
   2.2091300  47.2046360  75.3756340   2.3832680  48.5131020  74.6343700
   5.9527700  49.1313040  70.0951600   5.7119060  49.3987600  69.2082120
   6.8930340  49.3018770  70.1502460   8.1582120  35.5945730  73.8508110
   8.0971010  36.1867560  74.6003520   9.0982500  35.4871690  73.7058370
  10.7956680  35.2515790  73.4900400  11.4097090  35.5695080  72.8281480
  11.3406240  34.7664380  74.1096260  17.2131860  51.1507420  70.8962240
  16.7190140  51.5476290  70.1789370  16.6045150  50.5256630  71.2899520
   2.0909700  50.5215700  71.6139660   1.4970020  50.3900400  72.3529700
   2.0833540  49.6853840  71.1481760  11.5364720  33.8147930  69.8169690
  10.6624560  34.1483040  69.6142620  11.4275470  33.3421110  70.6421560
  12.4436700  36.0218800  71.2011410  12.1150060  35.2070560  70.8213140
  13.3919000  35.9788610  71.0777100  14.8971310  51.7930840  68.1748980
  14.4374280  52.5446650  67.8007000  14.2683770  51.0737310  68.1163780
   5.3267030  50.1019080  67.3497110   5.8432050  49.4906440  66.8245370
   5.9764410  50.6047860  67.8408120   8.0662530  50.9927570  68.1766090
   8.3540340  50.7381870  67.2999100   8.5785750  50.4404930  68.7671660
   9.2839540  34.7317770  68.7562600   8.5011330  35.2063270  69.0359360
   8.9902470  33.8272600  68.6475780  13.8360610  35.4340870  66.8011690
  14.2768700  35.3785970  65.9533290  13.5668200  36.3498880  66.8721870
  15.6999180  35.0656110  64.8120510  15.6387580  34.1217330  64.6651530
  16.4791210  35.1736200  65.3573970   7.1693760  37.1504520  64.2678630
   6.3568270  36.7761410  63.9274510   7.6735400  36.3949600  64.5699820
  11.6718740  33.8146970  65.5061700  12.2748110  34.3867180  65.9810220
  10.9311730  34.3786410  65.2835600  14.8153340  34.2168530  60.7801980
  15.0103970  35.1151980  61.0469410  14.0283210  33.9855610  61.2734930
   3.0005100  35.5629300  59.8178290   3.5297860  34.7759100  59.6886240
   3.6333420  36.2420490  60.0513820   5.1942940  35.3004440  62.8723680
   4.5645680  34.5991750  63.0393810   4.6548080  36.0608570  62.6556840
   8.1334890  51.9143670  75.5434290   9.0602200  51.6787940  75.5870250
   8.1185320  52.7415670  75.0620320   5.3198500  34.5788420  75.3076170
   5.0382770  35.0822020  74.5436990   5.7018200  33.7810170  74.9418300
   4.2107600  51.8464080  60.0943850   4.9426420  51.5623360  59.5467740
   4.4701270  51.6077360  60.9843230   3.3722390  47.9628810  60.0990180
   2.7431270  48.4313910  60.6476010   3.4870220  47.1178030  60.5336370
  11.9213960  33.9942000  75.8856640  11.8079410  34.3136610  76.7808160
  12.7383700  34.3954510  75.5893920  14.7012450  51.1413530  75.3675330
  15.4937770  50.6462760  75.1601290  14.9945600  51.8203670  75.9750940
  10.8272110  42.0134470  46.2491380  10.7466160  41.0989080  45.9783090
  10.4136530  42.5101540  45.5431090   8.9590150  43.7913490  48.1300650
   8.1832250  43.3113930  48.4199220   9.6103080  43.1119140  47.9556810
   2.9755980  44.1033300  49.0076410   2.1440860  43.8482010  49.4072920
   3.5836960  44.1744070  49.7434330  12.9797580  48.1973680  46.9099780
  12.5179110  47.4260920  47.2386950  13.7923130  48.2239750  47.4152230
   2.9557240  48.1373390  49.2034430   3.2585280  47.2471130  49.0244650
   3.7000830  48.6943610  48.9756680   9.2060890  50.4831690  46.5303770
   8.5872330  50.9389190  45.9598210  10.0612670  50.6383150  46.1293470
   8.3999140  46.4670680  48.1370810   8.3307420  45.5260620  47.9759940
   9.1619000  46.5572090  48.7093380   9.4304310  39.2741060  48.3639740
   9.8069130  38.4012940  48.2513410   9.3323820  39.6099760  47.4730180
   3.5609320  37.6466690  43.8257180   3.6676070  38.5470420  44.1325940
   2.6501680  37.5984660  43.5351830   5.4017050  40.6153060  48.1582360
   5.9095270  41.1134030  48.7987380   5.9330290  39.8388260  47.9821720
   3.6853150  35.2551620  52.4245780   3.6871590  35.7724010  51.6191680
   2.8557460  34.7781800  52.4015710  10.0724240  45.3670930  43.9235680
   9.4541510  45.8320380  43.3598400  10.5847490  46.0598410  44.3405190
   4.9356000  44.8946800  50.6019280   4.6025380  45.5215720  51.2440350
   5.1122680  45.4208680  49.8220950   3.3668480  36.9661580  50.4316230
   3.7085290  37.8103630  50.1370100   2.4284290  37.1145320  50.5481570
   4.1475100  46.8627600  52.4168460   4.7649100  47.5378680  52.1352910
   3.2868220  47.2715580  52.3255960  15.0652690  48.3267010  50.3323100
  14.3816210  48.9966120  50.3239770  15.6046980  48.5247660  49.5667960
   7.0496370  34.4543850  46.7560820   7.3571350  33.8990740  46.0396320
   6.1197070  34.5888310  46.5733810  12.6011430  50.1711140  49.0468280
  12.6138590  49.7673430  48.1790540  12.0486650  50.9458430  48.9429710
  13.8956850  46.8927360  44.1358450  13.7853180  45.9501690  44.2607870
  13.8925100  47.2543000  45.0221210  11.9996870  45.0740980  50.3750890
  12.4165660  44.8601090  49.5404350  12.7236690  45.3313770  50.9459510
   9.4377130  42.5192680  43.4920940   8.5106410  42.4530060  43.7209410
   9.5901950  43.4572810  43.3776180   9.4246210  38.7909680  40.4888100
   8.4849880  38.9523640  40.5740560   9.7429470  39.5095360  39.9424090
   5.0433770  43.0457420  46.2740670   4.6390770  42.3334670  45.7786570
   5.1296890  42.7010660  47.1628710   5.5115470  46.7324980  48.4379880
   5.2143760  46.1270450  47.7587660   6.4615290  46.7702290  48.3269240
   3.7562390  39.8200630  50.0539710   4.3076980  39.9295970  49.2792960
   4.2705900  40.1938230  50.7694940  13.6001080  50.3056850  52.1002980
  13.1231640  51.1129040  51.9075590  12.9162870  49.6535180  52.2529190
   4.6033900  46.4706670  55.0887680   3.7062430  46.6946640  55.3361080
   4.6286770  46.5941610  54.1399080  11.6439120  43.3199790  41.0028940
  12.0832400  42.4822220  40.8566760  12.3567540  43.9529190  41.0893080
   3.4305120  43.3419990  53.6645050   3.2912890  44.2142790  54.0332450
   2.5486480  42.9992800  53.5192990   9.7534500  48.2595860  44.9710180
  10.1930410  49.0020190  44.5565570   9.6921390  48.5022430  45.8949140
   5.2285470  49.2841690  55.8730200   5.2000900  49.6884640  55.0058630
   5.0650440  48.3552050  55.7101800  15.2256260  34.5742600  39.3169980
  14.9128920  34.6669430  40.2169050  15.9868730  35.1523630  39.2667410
  10.4450280  50.9609640  52.8989190  10.9594950  50.8717650  53.7011620
   9.6019360  51.3069340  53.1917100  12.4204680  51.2464980  42.3273190
  12.2605820  50.9567920  43.2255020  12.2551390  50.4705110  41.7918420
   4.8993060  51.0263510  44.1044810   4.7235540  50.1099050  43.8912610
   4.0448800  51.3850800  44.3442610  12.1230810  48.7552540  40.8871190
  11.4295970  48.7529830  40.2273470  12.8653670  48.3311860  40.4565360
  11.6880740  50.3815250  44.9619680  12.1437690  49.6004630  45.2758300
  12.0273260  51.0922070  45.5060860   4.2102060  35.2837470  47.1570990
   3.7670210  36.0647010  46.8255510   4.7687050  35.6067360  47.8641930
   8.4971870  38.1505990  52.7606310   8.0351240  38.3589010  53.5726250
   8.0949980  37.3365340  52.4576980  13.4976380  39.3714940  53.8902970
  12.6469970  39.0720690  54.2112040  13.3378170  39.6156950  52.9786790
  10.5926090  40.8716690  55.9901760  10.9179500  40.0380440  55.6503990
  11.3806420  41.3945210  56.1380090   7.3260880  34.9048170  42.0376820
   6.7015060  34.9008040  42.7630130   7.2391000  34.0379130  41.6412790
   6.2477960  35.8284800  49.0160590   6.5450290  36.7347630  48.9352610
   6.7963520  35.3403580  48.4020160   4.0016280  40.4071040  44.8852240
   3.7757200  40.1908210  45.7898860   3.2208810  40.8399500  44.5398210
  11.2314040  40.4134410  43.4842890  10.6322930  41.1370210  43.3006510
  11.7793650  40.3511190  42.7019340   6.4415490  41.3056620  55.5512510
   6.3459090  40.3651350  55.4012910   7.2847470  41.5271690  55.1560580
   9.8378910  39.0497950  45.5146170  10.2308480  39.3670150  44.7014860
  10.1995760  38.1709830  45.6290690   8.1471080  37.8005260  56.7743030
   7.4569400  37.6077460  57.4089120   8.8903380  38.0839900  57.3067330
  10.4234050  41.6403700  49.6096950   9.6915170  42.1490510  49.9587050
  10.0258390  40.8233680  49.3085730   6.8611440  38.3157900  48.0149440
   6.8647500  37.8747850  47.1653980   7.7562560  38.6375230  48.1221260
   2.7113820  38.1984390  46.9743650   2.3713870  38.6759620  47.7310700
   1.9491140  37.7449510  46.6144750   6.9231590  39.3169980  41.0056200
   7.0444410  39.2756460  41.9542020   6.5380100  40.1794130  40.8502930
   5.9353090  41.6271120  40.4039500   5.3669990  41.1789370  39.7775410
   6.6442090  41.9863900  39.8704650  14.3130710  34.5069560  54.8606270
  14.6376480  33.7759220  55.3864250  14.3487220  34.1883200  53.9587260
   7.1619410  42.3759680  49.7614850   7.5289540  41.9018250  50.5076190
   6.9724470  43.2501250  50.1023190   4.9518780  41.4168320  52.0799060
   4.6475850  42.2960300  52.3049420   5.9065240  41.4768110  52.1156500
   3.4800570  45.6229310  42.6765910   2.7062830  45.0826930  42.5164630
   4.2095200  45.1035920  42.3383670  14.2388550  44.6194670  48.4692300
  14.9587670  45.1149960  48.0788410  14.0370370  43.9412560  47.8246170
   9.6998490  36.0132630  42.6121690   8.8863100  35.5145800  42.5367000
   9.5060440  36.8530880  42.1958040   9.6207350  44.6903730  54.3561300
   9.5544660  43.7699400  54.1018890   8.9912490  44.7879170  55.0705940
  12.4146880  40.3852280  40.9083850  13.3026500  40.6969510  40.7335190
  12.3851970  39.5124530  40.5164430   3.5237970  45.2909690  46.3144720
   4.0416640  44.4877950  46.2601610   3.0721990  45.2288830  47.1561550
   8.4107470  46.5575970  41.5872020   8.7523170  47.3018200  41.0915340
   7.5820180  46.8707090  41.9496850   4.2095630  42.7155300  56.1109970
   3.9095770  42.8612480  55.2137790   4.9806870  42.1560590  56.0183360
   9.5524080  47.5124300  54.1065100   9.5668620  46.5805260  53.8884010
   8.8449180  47.5984060  54.7454870  14.6861150  41.6964120  40.3763710
  14.6024870  42.1278340  39.5260150  15.4055340  42.1562470  40.8090530
  15.7148400  48.5506380  43.1045840  15.0724560  47.8962000  43.3789560
  15.3279060  48.9561470  42.3286510  11.2934880  45.8791810  46.9517530
  11.6458700  45.2819940  46.2918900  10.4097210  45.5536040  47.1225780
   7.3798160  46.6389500  44.3587940   8.0669290  47.1858710  44.7395530
   6.5930580  47.1830230  44.3937550   6.6825370  43.6435530  43.9713300
   7.1388150  44.4540780  44.1973490   6.3313580  43.3258670  44.8031790
   8.9857980  49.1541870  51.2005600   9.6300200  49.3601250  51.8779020
   9.3487420  48.3930270  50.7476450   2.5837150  33.9873180  44.4435820
   2.4551780  33.9791080  45.3920740   1.7599170  34.3256270  44.0926830
  10.2590060  47.1574220  49.9183050  10.9012290  46.4567380  50.0315220
  10.7839410  47.9372660  49.7379940  14.1045780  47.4422840  39.6422190
  13.8783360  46.7253280  40.2346830  13.7141980  47.1935280  38.8043940
  12.0327680  47.9569120  53.1219110  12.3683920  48.5435810  53.7997030
  11.1128020  47.8261830  53.3516900  13.6862030  45.3594780  41.3036350
  13.3983730  45.8207470  42.0914230  14.4814200  44.8992550  41.5720570
   7.8616260  48.0060450  56.2907170   7.5413130  47.2869690  56.8352860
   7.1874620  48.6815520  56.3643230   5.9030430  48.8520900  41.2340320
   5.8940530  49.5850590  40.6184830   4.9828790  48.6052480  41.3267280
  11.0769860  38.2386610  51.6543970  11.4450680  37.4181820  51.9823540
  10.2168060  38.2988500  52.0699620   8.8890030  48.9149140  39.8965510
   8.9902010  48.7113130  38.9667490   7.9891770  48.6607420  40.1013290
   6.4115920  39.4729500  43.8789410   5.7032070  39.9415840  44.3203020
   6.6960400  38.8151510  44.5134600   8.0371850  40.8926200  51.8781940
   8.5357100  41.3672020  52.5433790   8.1794800  39.9689720  52.0851970
   7.5308140  51.4335460  44.5913180   7.7849640  51.3956850  43.6692550
   6.5820620  51.3068790  44.5841430   4.6150940  37.7814580  41.2540120
   5.4641470  38.2184730  41.1880310   4.2482210  38.0934840  42.0812180
  15.2438710  37.1094160  52.7210330  14.7412310  37.8499560  53.0604140
  16.0595370  37.4978160  52.4047120   3.5142360  44.0346940  39.7275650
   4.2805630  43.9228300  40.2901080   3.5917050  43.3384910  39.0752420
   2.2089120  41.4672010  40.4108540   2.2892710  40.5199520  40.5225940
   3.1008870  41.7978890  40.5169200  15.5386300  49.5236190  47.8425950
  15.6633720  50.3467360  48.3149760  16.4051860  49.3126920  47.4950100
   3.0103830  51.6167400  47.5143080   3.7466310  51.0682860  47.7851650
   3.3944750  52.4823410  47.3749070   2.0162110  50.8013470  56.7028660
   2.8174840  51.1225520  57.1164060   1.5013930  50.4409050  57.4248570
   6.1206140  50.7897710  39.3368650   6.9134750  51.0786540  38.8850440
   5.6010490  50.3589880  38.6581130  10.8526740  46.9093340  56.6504070
  10.2464900  46.9324940  55.9099820  10.5480850  46.1776380  57.1871320
  12.2827110  50.6373630  55.2613480  13.2348860  50.5531650  55.2113720
  12.1355330  51.3015340  55.9347270  15.1736310  50.0167840  40.7605390
  14.8877820  49.6032980  39.9459570  14.9755860  50.9455550  40.6405910
   6.6383540  46.0101120  39.2011000   6.5334180  45.3953470  39.9272380
   6.4707760  45.4867010  38.4174010   6.7897860  44.6957920  55.1800230
   6.0243530  45.2642920  55.0954900   6.9713820  44.4034130  54.2868460
   9.8786270  45.0721150  39.8052990   9.3296370  45.5190450  40.4495730
  10.5005530  44.5670400  40.3290660  13.9321210  46.4263250  55.7375250
  14.6730680  46.7639010  55.2342710  13.1693890  46.5955310  55.1845020
   1.7683000  41.4316520  56.5414780   1.8088340  41.1330390  57.4500010
   2.6228500  41.8324130  56.3822300   5.5461390  44.0312070  41.7018290
   5.9677810  43.8651940  42.5449680   5.6712230  43.2212300  41.2073430
   3.7088810  40.0108620  54.5089270   3.1785270  39.5199570  53.8812610
   4.3776880  40.4392820  53.9747200   8.0589030  43.0549680  38.9495390
   8.5794690  42.3398700  38.5836540   8.7057430  43.6935550  39.2495900
  12.6066870  44.4778080  54.2730460  13.0207890  44.6323160  55.1220880
  11.6717870  44.6033300  54.4356240  13.0789040  41.8174240  56.2769610
  13.6609810  41.0626560  56.1890090  13.2550810  42.3481680  55.5001090
   4.1961110  36.9770990  54.5886560   4.1017980  36.3591740  53.8637430
   3.6158500  37.7037280  54.3616470   6.9622550  35.5344230  51.6213950
   6.5139850  35.5568490  50.7759500   6.3287750  35.1363250  52.2184250
   7.3682100  44.4298560  52.2426390   7.7870210  45.2731290  52.0702630
   6.4490730  44.5670600  52.0133170   9.7046000  42.1614740  53.6264230
   9.8242210  41.5655880  54.3659070  10.5640000  42.1984430  53.2065530
  12.0433900  42.7151930  52.2026740  11.5169120  43.2394550  51.5991880
  12.3865240  43.3479320  52.8336470   4.4420290  40.1045300  38.6476450
   4.2409350  39.2412660  39.0089790   4.2712340  40.0178660  37.7098050
   5.2189520  50.7351570  53.3584120   4.6810610  51.4597630  53.0392820
   5.4723480  50.2581910  52.5681460   6.4714770  38.7036090  54.8840050
   7.0614460  38.3951940  55.5717870   5.6535010  38.2315840  55.0399950
  11.2908200  38.3201900  55.1173070  10.6023720  37.6583440  55.0523060
  12.0114220  37.8740170  55.5621530  11.9208600  34.9153530  41.1763330
  12.2010890  34.0721430  41.5322750  11.1474330  35.1476640  41.6902080
   3.2403090  37.2045920  38.6354330   3.5428990  37.2113350  37.7273480
   3.9797680  36.8543780  39.1321990   8.0751730  51.9702780  53.6170770
   8.0010430  52.8737920  53.9243140   7.1730570  51.6514680  53.5892840
   6.4588020  36.1480540  39.6210530   6.1110020  35.4704530  39.0412980
   6.6600790  35.6870050  40.4353920   8.6237060  51.1361290  41.2397130
   9.5187850  51.4746260  41.2615890   8.6554690  50.4140700  40.6121410
   2.2633220  46.5088340  39.4684130   2.7008090  47.0518010  40.1241710
   2.7480950  45.6835290  39.4780470   4.0740940  47.6286380  44.5806360
   3.7736480  47.5051350  45.4810270   3.9678430  46.7694970  44.1722090
  15.6031410  49.6664960  53.9463330  15.0033400  49.7257520  53.2027250
  15.7325310  48.7269940  54.0760180  16.8432860  47.4082780  39.2833040
  16.0125820  47.4759430  39.7540270  17.0204690  48.2986900  38.9799900
  14.2883050  46.3916940  52.0439490  13.4742890  46.8214100  52.3065280
  14.6957250  47.0035350  51.4308540  12.7484100  37.4709480  40.2393390
  13.1668980  37.2840460  39.3990050  12.4420160  36.6188530  40.5496320
  14.0761520  36.7561570  56.3488410  14.9531700  36.7644970  56.7322410
  14.0882360  36.0192410  55.7380760  14.7877640  34.4419540  52.1689520
  15.4249860  35.0553680  52.5348710  14.9352530  34.4780200  51.2238750
  14.3459100  51.1435540  45.5707760  14.9418170  50.8220110  44.8942180
  14.6037250  50.6707360  46.3621030   2.2521670  47.5753450  55.7198390
   2.2091300  47.2046360  56.6012850   2.3832680  48.5131020  55.8600210
   5.9527700  49.1313040  51.3208110   5.7119060  49.3987600  50.4338630
   6.8930340  49.3018770  51.3758970   8.1582120  35.5945730  55.0764620
   8.0971010  36.1867560  55.8260030   9.0982500  35.4871690  54.9314880
  10.7956680  35.2515790  54.7156910  11.4097090  35.5695080  54.0537990
  11.3406240  34.7664380  55.3352770   2.0909700  50.5215700  52.8396170
   1.4970020  50.3900400  53.5786210   2.0833540  49.6853840  52.3738270
  11.5364720  33.8147930  51.0426200  10.6624560  34.1483040  50.8399130
  11.4275470  33.3421110  51.8678070  12.4436700  36.0218800  52.4267920
  12.1150060  35.2070560  52.0469650  13.3919000  35.9788610  52.3033610
  14.8971310  51.7930840  49.4005490  14.4374280  52.5446650  49.0263510
  14.2683770  51.0737310  49.3420290   5.3267030  50.1019080  48.5753620
   5.8432050  49.4906440  48.0501880   5.9764410  50.6047860  49.0664630
   8.0662530  50.9927570  49.4022600   8.3540340  50.7381870  48.5255610
   8.5785750  50.4404930  49.9928170   9.2839540  34.7317770  49.9819110
   8.5011330  35.2063270  50.2615870   8.9902470  33.8272600  49.8732290
   7.1693760  37.1504520  45.4935140   6.3568270  36.7761410  45.1531020
   7.6735400  36.3949600  45.7956330   3.0005100  35.5629300  41.0434800
   3.5297860  34.7759100  40.9142750   3.6333420  36.2420490  41.2770330
   5.1942940  35.3004440  44.0980190   4.5645680  34.5991750  44.2650320
   4.6548080  36.0608570  43.8813350   8.1334890  51.9143670  56.7690800
   9.0602200  51.6787940  56.8126760   8.1185320  52.7415670  56.2876830
  16.3679950  51.4569240  43.7665050  16.5432140  50.7706980  43.1225970
  15.6701520  51.9816290  43.3741720   5.3198500  34.5788420  56.5332680
   5.0382770  35.0822020  55.7693500   5.7018200  33.7810170  56.1674810
   4.2107600  51.8464080  41.3200360   4.9426420  51.5623360  40.7724250
   4.4701270  51.6077360  42.2099740   3.3722390  47.9628810  41.3246690
   2.7431270  48.4313910  41.8732520   3.4870220  47.1178030  41.7592880
  11.9213960  33.9942000  57.1113150  11.8079410  34.3136610  58.0064670
  12.7383700  34.3954510  56.8150430  14.7012450  51.1413530  56.5931840
  15.4937770  50.6462760  56.3857800  14.9945600  51.8203670  57.2007450
  10.8272110  42.0134470  27.4747890  10.7466160  41.0989080  27.2039600
  10.4136530  42.5101540  26.7687600   8.9590150  43.7913490  29.3557160
   8.1832250  43.3113930  29.6455730   9.6103080  43.1119140  29.1813320
   2.9755980  44.1033300  30.2332920   2.1440860  43.8482010  30.6329430
   3.5836960  44.1744070  30.9690840  12.9797580  48.1973680  28.1356290
  12.5179110  47.4260920  28.4643460  13.7923130  48.2239750  28.6408740
   2.9557240  48.1373390  30.4290940   3.2585280  47.2471130  30.2501160
   3.7000830  48.6943610  30.2013190   9.2060890  50.4831690  27.7560280
   8.5872330  50.9389190  27.1854720  10.0612670  50.6383150  27.3549980
   8.3999140  46.4670680  29.3627320   8.3307420  45.5260620  29.2016450
   9.1619000  46.5572090  29.9349890   9.4304310  39.2741060  29.5896250
   9.8069130  38.4012940  29.4769920   9.3323820  39.6099760  28.6986690
   3.5609320  37.6466690  25.0513690   3.6676070  38.5470420  25.3582450
   2.6501680  37.5984660  24.7608340  13.2128430  36.7691500  26.5224590
  14.0338050  36.2788070  26.5650070  13.2462510  37.3589160  27.2756430
   5.4017050  40.6153060  29.3838870   5.9095270  41.1134030  30.0243890
   5.9330290  39.8388260  29.2078230  17.5027980  38.7858250  33.0868220
  16.7980150  39.1739960  32.5683330  17.7685900  39.4808540  33.6889150
   3.6853150  35.2551620  33.6502290   3.6871590  35.7724010  32.8448190
   2.8557460  34.7781800  33.6272220  10.0724240  45.3670930  25.1492190
   9.4541510  45.8320380  24.5854910  10.5847490  46.0598410  25.5661700
   4.9356000  44.8946800  31.8275790   4.6025380  45.5215720  32.4696860
   5.1122680  45.4208680  31.0477460  13.4489910  38.7091880  29.2952130
  12.7445480  38.9976770  29.8755240  13.8102070  39.5191990  28.9351690
   3.3668480  36.9661580  31.6572740   3.7085290  37.8103630  31.3626610
   2.4284290  37.1145320  31.7738080   4.1475100  46.8627600  33.6424970
   4.7649100  47.5378680  33.3609420   3.2868220  47.2715580  33.5512470
  15.0652690  48.3267010  31.5579610  14.3816210  48.9966120  31.5496280
  15.6046980  48.5247660  30.7924470  16.5176830  38.1546670  29.6861340
  15.5701740  38.1885650  29.8176770  16.8426820  38.9685620  30.0710700
   7.0496370  34.4543850  27.9817330   7.3571350  33.8990740  27.2652830
   6.1197070  34.5888310  27.7990320  12.6011430  50.1711140  30.2724790
  12.6138590  49.7673430  29.4047050  12.0486650  50.9458430  30.1686220
  13.8956850  46.8927360  25.3614960  13.7853180  45.9501690  25.4864380
  13.8925100  47.2543000  26.2477720  11.9996870  45.0740980  31.6007400
  12.4165660  44.8601090  30.7660860  12.7236690  45.3313770  32.1716020
   9.4377130  42.5192680  24.7177450   8.5106410  42.4530060  24.9465920
   9.5901950  43.4572810  24.6032690   9.4246210  38.7909680  21.7144610
   8.4849880  38.9523640  21.7997070   9.7429470  39.5095360  21.1680600
  15.9458970  43.4728200  31.6923640  15.1177600  43.5421290  31.2173770
  16.5409450  44.0582510  31.2239470  13.4674420  44.0812980  25.2212700
  12.8486840  43.7432530  24.5739000  13.4498870  43.4372740  25.9291890
  12.9100980  40.2597520  32.6378510  12.4972160  41.0851230  32.8918500
  12.1776930  39.6742560  32.4454870   5.0433770  43.0457420  27.4997180
   4.6390770  42.3334670  27.0043080   5.1296890  42.7010660  28.3885220
   5.5115470  46.7324980  29.6636390   5.2143760  46.1270450  28.9844170
   6.4615290  46.7702290  29.5525750   3.7562390  39.8200630  31.2796220
   4.3076980  39.9295970  30.5049470   4.2705900  40.1938230  31.9951450
  13.6001080  50.3056850  33.3259490  13.1231640  51.1129040  33.1332100
  12.9162870  49.6535180  33.4785700   4.6033900  46.4706670  36.3144190
   3.7062430  46.6946640  36.5617590   4.6286770  46.5941610  35.3655590
  11.6439120  43.3199790  22.2285450  12.0832400  42.4822220  22.0823270
  12.3567540  43.9529190  22.3149590   3.4305120  43.3419990  34.8901560
   3.2912890  44.2142790  35.2588960   2.5486480  42.9992800  34.7449500
   9.7534500  48.2595860  26.1966690  10.1930410  49.0020190  25.7822080
   9.6921390  48.5022430  27.1205650   5.2285470  49.2841690  37.0986710
   5.2000900  49.6884640  36.2315140   5.0650440  48.3552050  36.9358310
  15.2256260  34.5742600  20.5426490  14.9128920  34.6669430  21.4425560
  15.9868730  35.1523630  20.4923920  17.1800290  50.0668790  38.3950880
  17.6560010  50.5451680  39.0739960  17.8007450  49.9986280  37.6696380
  16.5833540  47.2581640  35.5550890  16.7096600  47.0193520  34.6368070
  16.6254920  46.4266180  36.0272970  10.4450280  50.9609640  34.1245700
  10.9594950  50.8717650  34.9268130   9.6019360  51.3069340  34.4173610
  12.4204680  51.2464980  23.5529700  12.2605820  50.9567920  24.4511530
  12.2551390  50.4705110  23.0174930   4.8993060  51.0263510  25.3301320
   4.7235540  50.1099050  25.1169120   4.0448800  51.3850800  25.5699120
  12.1230810  48.7552540  22.1127700  11.4295970  48.7529830  21.4529980
  12.8653670  48.3311860  21.6821870  11.6880740  50.3815250  26.1876190
  12.1437690  49.6004630  26.5014810  12.0273260  51.0922070  26.7317370
  16.4357550  39.3114100  36.5200630  15.8201820  39.8193770  35.9916090
  16.1153970  38.4112430  36.4626570   4.2102060  35.2837470  28.3827500
   3.7670210  36.0647010  28.0512020   4.7687050  35.6067360  29.0898440
   8.4971870  38.1505990  33.9862820   8.0351240  38.3589010  34.7982760
   8.0949980  37.3365340  33.6833490  13.4976380  39.3714940  35.1159480
  12.6469970  39.0720690  35.4368550  13.3378170  39.6156950  34.2043300
  10.5926090  40.8716690  37.2158270  10.9179500  40.0380440  36.8760500
  11.3806420  41.3945210  37.3636600   7.3260880  34.9048170  23.2633330
   6.7015060  34.9008040  23.9886640   7.2391000  34.0379130  22.8669300
   6.2477960  35.8284800  30.2417100   6.5450290  36.7347630  30.1609120
   6.7963520  35.3403580  29.6276670   4.0016280  40.4071040  26.1108750
   3.7757200  40.1908210  27.0155370   3.2208810  40.8399500  25.7654720
  11.2314040  40.4134410  24.7099400  10.6322930  41.1370210  24.5263020
  11.7793650  40.3511190  23.9275850   6.4415490  41.3056620  36.7769020
   6.3459090  40.3651350  36.6269420   7.2847470  41.5271690  36.3817090
   9.8378910  39.0497950  26.7402680  10.2308480  39.3670150  25.9271370
  10.1995760  38.1709830  26.8547200   8.1471080  37.8005260  37.9999540
   7.4569400  37.6077460  38.6345630   8.8903380  38.0839900  38.5323840
  10.4234050  41.6403700  30.8353460   9.6915170  42.1490510  31.1843560
  10.0258390  40.8233680  30.5342240   6.8611440  38.3157900  29.2405950
   6.8647500  37.8747850  28.3910490   7.7562560  38.6375230  29.3477770
   2.7113820  38.1984390  28.2000160   2.3713870  38.6759620  28.9567210
   1.9491140  37.7449510  27.8401260   6.9231590  39.3169980  22.2312710
   7.0444410  39.2756460  23.1798530   6.5380100  40.1794130  22.0759440
  10.8859960  37.0937380  30.2476400  10.9032700  37.5446030  31.0918250
  10.6375540  36.1943020  30.4609840   5.9353090  41.6271120  21.6296010
   5.3669990  41.1789370  21.0031920   6.6442090  41.9863900  21.0961160
  14.3130710  34.5069560  36.0862780  14.6376480  33.7759220  36.6120760
  14.3487220  34.1883200  35.1843770   7.1619410  42.3759680  30.9871360
   7.5289540  41.9018250  31.7332700   6.9724470  43.2501250  31.3279700
   4.9518780  41.4168320  33.3055570   4.6475850  42.2960300  33.5305930
   5.9065240  41.4768110  33.3413010   3.4800570  45.6229310  23.9022420
   2.7062830  45.0826930  23.7421140   4.2095200  45.1035920  23.5640180
  14.2388550  44.6194670  29.6948810  14.9587670  45.1149960  29.3044920
  14.0370370  43.9412560  29.0502680   9.6998490  36.0132630  23.8378200
   8.8863100  35.5145800  23.7623510   9.5060440  36.8530880  23.4214550
   9.6207350  44.6903730  35.5817810   9.5544660  43.7699400  35.3275400
   8.9912490  44.7879170  36.2962450  12.4146880  40.3852280  22.1340360
  13.3026500  40.6969510  21.9591700  12.3851970  39.5124530  21.7420940
   3.5237970  45.2909690  27.5401230   4.0416640  44.4877950  27.4858120
   3.0721990  45.2288830  28.3818060   8.4107470  46.5575970  22.8128530
   8.7523170  47.3018200  22.3171850   7.5820180  46.8707090  23.1753360
   4.2095630  42.7155300  37.3366480   3.9095770  42.8612480  36.4394300
   4.9806870  42.1560590  37.2439870   9.5524080  47.5124300  35.3321610
   9.5668620  46.5805260  35.1140520   8.8449180  47.5984060  35.9711380
  14.6861150  41.6964120  21.6020220  14.6024870  42.1278340  20.7516660
  15.4055340  42.1562470  22.0347040  15.7635290  44.1531640  34.6790190
  15.0383480  44.7460420  34.4819580  16.2910750  44.1455180  33.8803560
  15.7148400  48.5506380  24.3302350  15.0724560  47.8962000  24.6046070
  15.3279060  48.9561470  23.5543020  11.2934880  45.8791810  28.1774040
  11.6458700  45.2819940  27.5175410  10.4097210  45.5536040  28.3482290
   7.3798160  46.6389500  25.5844450   8.0669290  47.1858710  25.9652040
   6.5930580  47.1830230  25.6194060   6.6825370  43.6435530  25.1969810
   7.1388150  44.4540780  25.4230000   6.3313580  43.3258670  26.0288300
   8.9857980  49.1541870  32.4262110   9.6300200  49.3601250  33.1035530
   9.3487420  48.3930270  31.9732960   2.5837150  33.9873180  25.6692330
   2.4551780  33.9791080  26.6177250   1.7599170  34.3256270  25.3183340
  10.2590060  47.1574220  31.1439560  10.9012290  46.4567380  31.2571730
  10.7839410  47.9372660  30.9636450  14.1045780  47.4422840  20.8678700
  13.8783360  46.7253280  21.4603340  13.7141980  47.1935280  20.0300450
  12.0327680  47.9569120  34.3475620  12.3683920  48.5435810  35.0253540
  11.1128020  47.8261830  34.5773410  13.6862030  45.3594780  22.5292860
  13.3983730  45.8207470  23.3170740  14.4814200  44.8992550  22.7977080
   7.8616260  48.0060450  37.5163680   7.5413130  47.2869690  38.0609370
   7.1874620  48.6815520  37.5899740   5.9030430  48.8520900  22.4596830
   5.8940530  49.5850590  21.8441340   4.9828790  48.6052480  22.5523790
  11.0769860  38.2386610  32.8800480  11.4450680  37.4181820  33.2080050
  10.2168060  38.2988500  33.2956130  14.4431890  37.1943550  23.6888040
  13.8145050  37.2989220  22.9746270  13.9483810  37.4140330  24.4781920
   8.8890030  48.9149140  21.1222020   8.9902010  48.7113130  20.1924000
   7.9891770  48.6607420  21.3269800   6.4115920  39.4729500  25.1045920
   5.7032070  39.9415840  25.5459530   6.6960400  38.8151510  25.7391110
   8.0371850  40.8926200  33.1038450   8.5357100  41.3672020  33.7690300
   8.1794800  39.9689720  33.3108480  10.4431350  36.1980160  26.5441710
  10.3199130  36.2166290  25.5951220  11.3915910  36.2459100  26.6640110
   7.5308140  51.4335460  25.8169690   7.7849640  51.3956850  24.8949060
   6.5820620  51.3068790  25.8097940   4.6150940  37.7814580  22.4796630
   5.4641470  38.2184730  22.4136820   4.2482210  38.0934840  23.3068690
  15.2438710  37.1094160  33.9466840  14.7412310  37.8499560  34.2860650
  16.0595370  37.4978160  33.6303630  13.5360720  42.3527340  27.3928200
  12.5950860  42.3677570  27.5675890  13.8504790  41.5663300  27.8388500
   3.5142360  44.0346940  20.9532160   4.2805630  43.9228300  21.5157590
   3.5917050  43.3384910  20.3008930   2.2089120  41.4672010  21.6365050
   2.2892710  40.5199520  21.7482450   3.1008870  41.7978890  21.7425710
  15.5386300  49.5236190  29.0682460  15.6633720  50.3467360  29.5406270
  16.4051860  49.3126920  28.7206610   3.0103830  51.6167400  28.7399590
   3.7466310  51.0682860  29.0108160   3.3944750  52.4823410  28.6005580
   2.0162110  50.8013470  37.9285170   2.8174840  51.1225520  38.3420570
   1.5013930  50.4409050  38.6505080   6.1206140  50.7897710  20.5625160
   6.9134750  51.0786540  20.1106950   5.6010490  50.3589880  19.8837640
  10.8526740  46.9093340  37.8760580  10.2464900  46.9324940  37.1356330
  10.5480850  46.1776380  38.4127830  12.2827110  50.6373630  36.4869990
  13.2348860  50.5531650  36.4370230  12.1355330  51.3015340  37.1603780
  15.1736310  50.0167840  21.9861900  14.8877820  49.6032980  21.1716080
  14.9755860  50.9455550  21.8662420   6.6383540  46.0101120  20.4267510
   6.5334180  45.3953470  21.1528890   6.4707760  45.4867010  19.6430520
   6.7897860  44.6957920  36.4056740   6.0243530  45.2642920  36.3211410
   6.9713820  44.4034130  35.5124970   9.8786270  45.0721150  21.0309500
   9.3296370  45.5190450  21.6752240  10.5005530  44.5670400  21.5547170
  13.9321210  46.4263250  36.9631760  14.6730680  46.7639010  36.4599220
  13.1693890  46.5955310  36.4101530   1.7683000  41.4316520  37.7671290
   1.8088340  41.1330390  38.6756520   2.6228500  41.8324130  37.6078810
   5.5461390  44.0312070  22.9274800   5.9677810  43.8651940  23.7706190
   5.6712230  43.2212300  22.4329940   3.7088810  40.0108620  35.7345780
   3.1785270  39.5199570  35.1069120   4.3776880  40.4392820  35.2003710
   8.0589030  43.0549680  20.1751900   8.5794690  42.3398700  19.8093050
   8.7057430  43.6935550  20.4752410  12.6066870  44.4778080  35.4986970
  13.0207890  44.6323160  36.3477390  11.6717870  44.6033300  35.6612750
  13.0789040  41.8174240  37.5026120  13.6609810  41.0626560  37.4146600
  13.2550810  42.3481680  36.7257600   4.1961110  36.9770990  35.8143070
   4.1017980  36.3591740  35.0893940   3.6158500  37.7037280  35.5872980
   6.9622550  35.5344230  32.8470460   6.5139850  35.5568490  32.0016010
   6.3287750  35.1363250  33.4440760   7.3682100  44.4298560  33.4682900
   7.7870210  45.2731290  33.2959140   6.4490730  44.5670600  33.2389680
   9.7046000  42.1614740  34.8520740   9.8242210  41.5655880  35.5915580
  10.5640000  42.1984430  34.4322040  12.0433900  42.7151930  33.4283250
  11.5169120  43.2394550  32.8248390  12.3865240  43.3479320  34.0592980
   4.4420290  40.1045300  19.8732960   4.2409350  39.2412660  20.2346300
   4.2712340  40.0178660  18.9354560   5.2189520  50.7351570  34.5840630
   4.6810610  51.4597630  34.2649330   5.4723480  50.2581910  33.7937970
   6.4714770  38.7036090  36.1096560   7.0614460  38.3951940  36.7974380
   5.6535010  38.2315840  36.2656460  11.2908200  38.3201900  36.3429580
  10.6023720  37.6583440  36.2779570  12.0114220  37.8740170  36.7878040
  11.9208600  34.9153530  22.4019840  12.2010890  34.0721430  22.7579260
  11.1474330  35.1476640  22.9158590   3.2403090  37.2045920  19.8610840
   3.5428990  37.2113350  18.9529990   3.9797680  36.8543780  20.3578500
   8.0751730  51.9702780  34.8427280   8.0010430  52.8737920  35.1499650
   7.1730570  51.6514680  34.8149350   6.4588020  36.1480540  20.8467040
   6.1110020  35.4704530  20.2669490   6.6600790  35.6870050  21.6610430
   8.6237060  51.1361290  22.4653640   9.5187850  51.4746260  22.4872400
   8.6554690  50.4140700  21.8377920   2.2633220  46.5088340  20.6940640
   2.7008090  47.0518010  21.3498220   2.7480950  45.6835290  20.7036980
   4.0740940  47.6286380  25.8062870   3.7736480  47.5051350  26.7066780
   3.9678430  46.7694970  25.3978600  15.6031410  49.6664960  35.1719840
  15.0033400  49.7257520  34.4283760  15.7325310  48.7269940  35.3016690
  16.8432860  47.4082780  20.5089550  16.0125820  47.4759430  20.9796780
  17.0204690  48.2986900  20.2056410  16.2989320  44.1530260  23.0123750
  17.0608230  44.7226910  23.1183440  16.3143690  43.5857460  23.7832060
  17.3049290  45.0080360  27.8565680  17.6758120  44.2247680  27.4501650
  17.9451220  45.6969460  27.6782980  14.2883050  46.3916940  33.2696000
  13.4742890  46.8214100  33.5321790  14.6957250  47.0035350  32.6565050
  16.3508490  44.4464630  20.1696270  16.6257330  45.3543510  20.0415490
  16.1619230  44.3827160  21.1058260  12.7484100  37.4709480  21.4649900
  13.1668980  37.2840460  20.6246560  12.4420160  36.6188530  21.7752830
  16.2473830  42.3833620  25.1625700  15.8717430  41.6161550  24.7306990
  15.5176950  42.7656320  25.6500630  15.6373450  41.5305140  34.7965220
  15.4059540  41.3017890  33.8963170  15.8978000  42.4504690  34.7510110
  14.0761520  36.7561570  37.5744920  14.9531700  36.7644970  37.9578920
  14.0882360  36.0192410  36.9637270  15.5224790  40.6091110  28.4632940
  16.0462270  40.1153760  27.8323110  16.1084210  40.7441470  29.2080510
  15.7014510  40.6930980  31.9852490  14.7517220  40.6594520  32.0997480
  15.8827520  41.6031090  31.7502260  15.0124760  39.8664460  24.4025350
  15.5083880  39.6335330  25.1874230  14.8140830  39.0276300  23.9862990
  16.4411920  38.5025410  26.9363030  16.3311200  38.3481450  27.8745300
  17.2019510  37.9746350  26.6938440  14.7877640  34.4419540  33.3946030
  15.4249860  35.0553680  33.7605220  14.9352530  34.4780200  32.4495260
  17.3302190  36.3333330  20.1769170  18.2551500  36.2014510  19.9687460
  17.3077980  36.4126150  21.1305620  17.4040680  37.1043990  22.8025880
  16.6092180  37.0389110  23.3318790  17.6083960  38.0394630  22.7911230
  14.3459100  51.1435540  26.7964270  14.9418170  50.8220110  26.1198690
  14.6037250  50.6707360  27.5877540   2.2521670  47.5753450  36.9454900
   2.2091300  47.2046360  37.8269360   2.3832680  48.5131020  37.0856720
   5.9527700  49.1313040  32.5464620   5.7119060  49.3987600  31.6595140
   6.8930340  49.3018770  32.6015480   8.1582120  35.5945730  36.3021130
   8.0971010  36.1867560  37.0516540   9.0982500  35.4871690  36.1571390
  10.7956680  35.2515790  35.9413420  11.4097090  35.5695080  35.2794500
  11.3406240  34.7664380  36.5609280  17.2131860  51.1507420  33.3475260
  16.7190140  51.5476290  32.6302390  16.6045150  50.5256630  33.7412540
   2.0909700  50.5215700  34.0652680   1.4970020  50.3900400  34.8042720
   2.0833540  49.6853840  33.5994780  11.5364720  33.8147930  32.2682710
  10.6624560  34.1483040  32.0655640  11.4275470  33.3421110  33.0934580
  12.4436700  36.0218800  33.6524430  12.1150060  35.2070560  33.2726160
  13.3919000  35.9788610  33.5290120  14.8971310  51.7930840  30.6262000
  14.4374280  52.5446650  30.2520020  14.2683770  51.0737310  30.5676800
   5.3267030  50.1019080  29.8010130   5.8432050  49.4906440  29.2758390
   5.9764410  50.6047860  30.2921140   8.0662530  50.9927570  30.6279110
   8.3540340  50.7381870  29.7512120   8.5785750  50.4404930  31.2184680
   9.2839540  34.7317770  31.2075620   8.5011330  35.2063270  31.4872380
   8.9902470  33.8272600  31.0988800  13.8360610  35.4340870  29.2524710
  14.2768700  35.3785970  28.4046310  13.5668200  36.3498880  29.3234890
  15.6999180  35.0656110  27.2633530  15.6387580  34.1217330  27.1164550
  16.4791210  35.1736200  27.8086990   7.1693760  37.1504520  26.7191650
   6.3568270  36.7761410  26.3787530   7.6735400  36.3949600  27.0212840
  11.6718740  33.8146970  27.9574720  12.2748110  34.3867180  28.4323240
  10.9311730  34.3786410  27.7348620  14.8153340  34.2168530  23.2315000
  15.0103970  35.1151980  23.4982430  14.0283210  33.9855610  23.7247950
   3.0005100  35.5629300  22.2691310   3.5297860  34.7759100  22.1399260
   3.6333420  36.2420490  22.5026840   5.1942940  35.3004440  25.3236700
   4.5645680  34.5991750  25.4906830   4.6548080  36.0608570  25.1069860
   8.1334890  51.9143670  37.9947310   9.0602200  51.6787940  38.0383270
   8.1185320  52.7415670  37.5133340  16.3679950  51.4569240  24.9921560
  16.5432140  50.7706980  24.3482480  15.6701520  51.9816290  24.5998230
   5.3198500  34.5788420  37.7589190   5.0382770  35.0822020  36.9950010
   5.7018200  33.7810170  37.3931320   4.2107600  51.8464080  22.5456870
   4.9426420  51.5623360  21.9980760   4.4701270  51.6077360  23.4356250
   3.3722390  47.9628810  22.5503200   2.7431270  48.4313910  23.0989030
   3.4870220  47.1178030  22.9849390  11.9213960  33.9942000  38.3369660
  11.8079410  34.3136610  39.2321180  12.7383700  34.3954510  38.0406940
  14.7012450  51.1413530  37.8188350  15.4937770  50.6462760  37.6114310
  14.9945600  51.8203670  38.4263960  10.8272110  42.0134470   8.7004400
  10.7466160  41.0989080   8.4296110  10.4136530  42.5101540   7.9944110
   8.9590150  43.7913490  10.5813670   8.1832250  43.3113930  10.8712240
   9.6103080  43.1119140  10.4069830   2.9755980  44.1033300  11.4589430
   2.1440860  43.8482010  11.8585940   3.5836960  44.1744070  12.1947350
  12.9797580  48.1973680   9.3612800  12.5179110  47.4260920   9.6899970
  13.7923130  48.2239750   9.8665250   2.9557240  48.1373390  11.6547450
   3.2585280  47.2471130  11.4757670   3.7000830  48.6943610  11.4269700
   9.2060890  50.4831690   8.9816790   8.5872330  50.9389190   8.4111230
  10.0612670  50.6383150   8.5806490   8.3999140  46.4670680  10.5883830
   8.3307420  45.5260620  10.4272960   9.1619000  46.5572090  11.1606400
   9.4304310  39.2741060  10.8152760   9.8069130  38.4012940  10.7026430
   9.3323820  39.6099760   9.9243200   3.5609320  37.6466690   6.2770200
   3.6676070  38.5470420   6.5838960   2.6501680  37.5984660   5.9864850
  13.2128430  36.7691500   7.7481100  14.0338050  36.2788070   7.7906580
  13.2462510  37.3589160   8.5012940   5.4017050  40.6153060  10.6095380
   5.9095270  41.1134030  11.2500400   5.9330290  39.8388260  10.4334740
  17.5027980  38.7858250  14.3124730  16.7980150  39.1739960  13.7939840
  17.7685900  39.4808540  14.9145660   3.6853150  35.2551620  14.8758800
   3.6871590  35.7724010  14.0704700   2.8557460  34.7781800  14.8528730
  10.0724240  45.3670930   6.3748700   9.4541510  45.8320380   5.8111420
  10.5847490  46.0598410   6.7918210   4.9356000  44.8946800  13.0532300
   4.6025380  45.5215720  13.6953370   5.1122680  45.4208680  12.2733970
  13.4489910  38.7091880  10.5208640  12.7445480  38.9976770  11.1011750
  13.8102070  39.5191990  10.1608200   3.3668480  36.9661580  12.8829250
   3.7085290  37.8103630  12.5883120   2.4284290  37.1145320  12.9994590
   4.1475100  46.8627600  14.8681480   4.7649100  47.5378680  14.5865930
   3.2868220  47.2715580  14.7768980  15.0652690  48.3267010  12.7836120
  14.3816210  48.9966120  12.7752790  15.6046980  48.5247660  12.0180980
  16.5176830  38.1546670  10.9117850  15.5701740  38.1885650  11.0433280
  16.8426820  38.9685620  11.2967210   7.0496370  34.4543850   9.2073840
   7.3571350  33.8990740   8.4909340   6.1197070  34.5888310   9.0246830
  12.6011430  50.1711140  11.4981300  12.6138590  49.7673430  10.6303560
  12.0486650  50.9458430  11.3942730  13.8956850  46.8927360   6.5871470
  13.7853180  45.9501690   6.7120890  13.8925100  47.2543000   7.4734230
  11.9996870  45.0740980  12.8263910  12.4165660  44.8601090  11.9917370
  12.7236690  45.3313770  13.3972530   9.4377130  42.5192680   5.9433960
   8.5106410  42.4530060   6.1722430   9.5901950  43.4572810   5.8289200
   9.4246210  38.7909680   2.9401120   8.4849880  38.9523640   3.0253580
   9.7429470  39.5095360   2.3937110  15.9458970  43.4728200  12.9180150
  15.1177600  43.5421290  12.4430280  16.5409450  44.0582510  12.4495980
  13.4674420  44.0812980   6.4469210  12.8486840  43.7432530   5.7995510
  13.4498870  43.4372740   7.1548400  12.9100980  40.2597520  13.8635020
  12.4972160  41.0851230  14.1175010  12.1776930  39.6742560  13.6711380
   5.0433770  43.0457420   8.7253690   4.6390770  42.3334670   8.2299590
   5.1296890  42.7010660   9.6141730   5.5115470  46.7324980  10.8892900
   5.2143760  46.1270450  10.2100680   6.4615290  46.7702290  10.7782260
   3.7562390  39.8200630  12.5052730   4.3076980  39.9295970  11.7305980
   4.2705900  40.1938230  13.2207960  13.6001080  50.3056850  14.5516000
  13.1231640  51.1129040  14.3588610  12.9162870  49.6535180  14.7042210
   4.6033900  46.4706670  17.5400700   3.7062430  46.6946640  17.7874100
   4.6286770  46.5941610  16.5912100  11.6439120  43.3199790   3.4541960
  12.0832400  42.4822220   3.3079780  12.3567540  43.9529190   3.5406100
   3.4305120  43.3419990  16.1158070   3.2912890  44.2142790  16.4845470
   2.5486480  42.9992800  15.9706010   9.7534500  48.2595860   7.4223200
  10.1930410  49.0020190   7.0078590   9.6921390  48.5022430   8.3462160
   5.2285470  49.2841690  18.3243220   5.2000900  49.6884640  17.4571650
   5.0650440  48.3552050  18.1614820  15.2256260  34.5742600   1.7683000
  14.9128920  34.6669430   2.6682070  15.9868730  35.1523630   1.7180430
  17.1800290  50.0668790  19.6207390  17.6560010  50.5451680  20.2996470
  17.8007450  49.9986280  18.8952890  16.5833540  47.2581640  16.7807400
  16.7096600  47.0193520  15.8624580  16.6254920  46.4266180  17.2529480
  10.4450280  50.9609640  15.3502210  10.9594950  50.8717650  16.1524640
   9.6019360  51.3069340  15.6430120  12.4204680  51.2464980   4.7786210
  12.2605820  50.9567920   5.6768040  12.2551390  50.4705110   4.2431440
   4.8993060  51.0263510   6.5557830   4.7235540  50.1099050   6.3425630
   4.0448800  51.3850800   6.7955630  12.1230810  48.7552540   3.3384210
  11.4295970  48.7529830   2.6786490  12.8653670  48.3311860   2.9078380
  11.6880740  50.3815250   7.4132700  12.1437690  49.6004630   7.7271320
  12.0273260  51.0922070   7.9573880  16.4357550  39.3114100  17.7457140
  15.8201820  39.8193770  17.2172600  16.1153970  38.4112430  17.6883080
   4.2102060  35.2837470   9.6084010   3.7670210  36.0647010   9.2768530
   4.7687050  35.6067360  10.3154950   8.4971870  38.1505990  15.2119330
   8.0351240  38.3589010  16.0239270   8.0949980  37.3365340  14.9090000
  13.4976380  39.3714940  16.3415990  12.6469970  39.0720690  16.6625060
  13.3378170  39.6156950  15.4299810  10.5926090  40.8716690  18.4414780
  10.9179500  40.0380440  18.1017010  11.3806420  41.3945210  18.5893110
   7.3260880  34.9048170   4.4889840   6.7015060  34.9008040   5.2143150
   7.2391000  34.0379130   4.0925810   6.2477960  35.8284800  11.4673610
   6.5450290  36.7347630  11.3865630   6.7963520  35.3403580  10.8533180
   4.0016280  40.4071040   7.3365260   3.7757200  40.1908210   8.2411880
   3.2208810  40.8399500   6.9911230  11.2314040  40.4134410   5.9355910
  10.6322930  41.1370210   5.7519530  11.7793650  40.3511190   5.1532360
   6.4415490  41.3056620  18.0025530   6.3459090  40.3651350  17.8525930
   7.2847470  41.5271690  17.6073600   9.8378910  39.0497950   7.9659190
  10.2308480  39.3670150   7.1527880  10.1995760  38.1709830   8.0803710
   8.1471080  37.8005260  19.2256050   7.4569400  37.6077460  19.8602140
   8.8903380  38.0839900  19.7580350  10.4234050  41.6403700  12.0609970
   9.6915170  42.1490510  12.4100070  10.0258390  40.8233680  11.7598750
   6.8611440  38.3157900  10.4662460   6.8647500  37.8747850   9.6167000
   7.7562560  38.6375230  10.5734280   2.7113820  38.1984390   9.4256670
   2.3713870  38.6759620  10.1823720   1.9491140  37.7449510   9.0657770
   6.9231590  39.3169980   3.4569220   7.0444410  39.2756460   4.4055040
   6.5380100  40.1794130   3.3015950  10.8859960  37.0937380  11.4732910
  10.9032700  37.5446030  12.3174760  10.6375540  36.1943020  11.6866350
   5.9353090  41.6271120   2.8552520   5.3669990  41.1789370   2.2288430
   6.6442090  41.9863900   2.3217670  14.3130710  34.5069560  17.3119290
  14.6376480  33.7759220  17.8377270  14.3487220  34.1883200  16.4100280
   7.1619410  42.3759680  12.2127870   7.5289540  41.9018250  12.9589210
   6.9724470  43.2501250  12.5536210   4.9518780  41.4168320  14.5312080
   4.6475850  42.2960300  14.7562440   5.9065240  41.4768110  14.5669520
   3.4800570  45.6229310   5.1278930   2.7062830  45.0826930   4.9677650
   4.2095200  45.1035920   4.7896690  14.2388550  44.6194670  10.9205320
  14.9587670  45.1149960  10.5301430  14.0370370  43.9412560  10.2759190
   9.6998490  36.0132630   5.0634710   8.8863100  35.5145800   4.9880020
   9.5060440  36.8530880   4.6471060   9.6207350  44.6903730  16.8074320
   9.5544660  43.7699400  16.5531910   8.9912490  44.7879170  17.5218960
  12.4146880  40.3852280   3.3596870  13.3026500  40.6969510   3.1848210
  12.3851970  39.5124530   2.9677450   3.5237970  45.2909690   8.7657740
   4.0416640  44.4877950   8.7114630   3.0721990  45.2288830   9.6074570
   8.4107470  46.5575970   4.0385040   8.7523170  47.3018200   3.5428360
   7.5820180  46.8707090   4.4009870   4.2095630  42.7155300  18.5622990
   3.9095770  42.8612480  17.6650810   4.9806870  42.1560590  18.4696380
   9.5524080  47.5124300  16.5578120   9.5668620  46.5805260  16.3397030
   8.8449180  47.5984060  17.1967890  14.6861150  41.6964120   2.8276730
  14.6024870  42.1278340   1.9773170  15.4055340  42.1562470   3.2603550
  15.7635290  44.1531640  15.9046700  15.0383480  44.7460420  15.7076090
  16.2910750  44.1455180  15.1060070  15.7148400  48.5506380   5.5558860
  15.0724560  47.8962000   5.8302580  15.3279060  48.9561470   4.7799530
  11.2934880  45.8791810   9.4030550  11.6458700  45.2819940   8.7431920
  10.4097210  45.5536040   9.5738800   7.3798160  46.6389500   6.8100960
   8.0669290  47.1858710   7.1908550   6.5930580  47.1830230   6.8450570
   6.6825370  43.6435530   6.4226320   7.1388150  44.4540780   6.6486510
   6.3313580  43.3258670   7.2544810   8.9857980  49.1541870  13.6518620
   9.6300200  49.3601250  14.3292040   9.3487420  48.3930270  13.1989470
   2.5837150  33.9873180   6.8948840   2.4551780  33.9791080   7.8433760
   1.7599170  34.3256270   6.5439850  10.2590060  47.1574220  12.3696070
  10.9012290  46.4567380  12.4828240  10.7839410  47.9372660  12.1892960
  12.0327680  47.9569120  15.5732130  12.3683920  48.5435810  16.2510050
  11.1128020  47.8261830  15.8029920  13.6862030  45.3594780   3.7549370
  13.3983730  45.8207470   4.5427250  14.4814200  44.8992550   4.0233590
   7.8616260  48.0060450  18.7420190   7.5413130  47.2869690  19.2865880
   7.1874620  48.6815520  18.8156250   5.9030430  48.8520900   3.6853340
   5.8940530  49.5850590   3.0697850   4.9828790  48.6052480   3.7780300
  11.0769860  38.2386610  14.1056990  11.4450680  37.4181820  14.4336560
  10.2168060  38.2988500  14.5212640  14.4431890  37.1943550   4.9144550
  13.8145050  37.2989220   4.2002780  13.9483810  37.4140330   5.7038430
   6.4115920  39.4729500   6.3302430   5.7032070  39.9415840   6.7716040
   6.6960400  38.8151510   6.9647620   8.0371850  40.8926200  14.3294960
   8.5357100  41.3672020  14.9946810   8.1794800  39.9689720  14.5364990
  10.4431350  36.1980160   7.7698220  10.3199130  36.2166290   6.8207730
  11.3915910  36.2459100   7.8896620   7.5308140  51.4335460   7.0426200
   7.7849640  51.3956850   6.1205570   6.5820620  51.3068790   7.0354450
   4.6150940  37.7814580   3.7053140   5.4641470  38.2184730   3.6393330
   4.2482210  38.0934840   4.5325200  15.2438710  37.1094160  15.1723350
  14.7412310  37.8499560  15.5117160  16.0595370  37.4978160  14.8560140
  13.5360720  42.3527340   8.6184710  12.5950860  42.3677570   8.7932400
  13.8504790  41.5663300   9.0645010   2.2089120  41.4672010   2.8621560
   2.2892710  40.5199520   2.9738960   3.1008870  41.7978890   2.9682220
  15.5386300  49.5236190  10.2938970  15.6633720  50.3467360  10.7662780
  16.4051860  49.3126920   9.9463120   3.0103830  51.6167400   9.9656100
   3.7466310  51.0682860  10.2364670   3.3944750  52.4823410   9.8262090
   2.0162110  50.8013470  19.1541680   2.8174840  51.1225520  19.5677080
   1.5013930  50.4409050  19.8761590  10.8526740  46.9093340  19.1017090
  10.2464900  46.9324940  18.3612840  10.5480850  46.1776380  19.6384340
  12.2827110  50.6373630  17.7126500  13.2348860  50.5531650  17.6626740
  12.1355330  51.3015340  18.3860290  15.1736310  50.0167840   3.2118410
  14.8877820  49.6032980   2.3972590  14.9755860  50.9455550   3.0918930
   6.7897860  44.6957920  17.6313250   6.0243530  45.2642920  17.5467920
   6.9713820  44.4034130  16.7381480   9.8786270  45.0721150   2.2566010
   9.3296370  45.5190450   2.9008750  10.5005530  44.5670400   2.7803680
  13.9321210  46.4263250  18.1888270  14.6730680  46.7639010  17.6855730
  13.1693890  46.5955310  17.6358040   1.7683000  41.4316520  18.9927800
   1.8088340  41.1330390  19.9013030   2.6228500  41.8324130  18.8335320
   5.5461390  44.0312070   4.1531310   5.9677810  43.8651940   4.9962700
   5.6712230  43.2212300   3.6586450   3.7088810  40.0108620  16.9602290
   3.1785270  39.5199570  16.3325630   4.3776880  40.4392820  16.4260220
  12.6066870  44.4778080  16.7243480  13.0207890  44.6323160  17.5733900
  11.6717870  44.6033300  16.8869260  13.0789040  41.8174240  18.7282630
  13.6609810  41.0626560  18.6403110  13.2550810  42.3481680  17.9514110
   4.1961110  36.9770990  17.0399580   4.1017980  36.3591740  16.3150450
   3.6158500  37.7037280  16.8129490   6.9622550  35.5344230  14.0726970
   6.5139850  35.5568490  13.2272520   6.3287750  35.1363250  14.6697270
   7.3682100  44.4298560  14.6939410   7.7870210  45.2731290  14.5215650
   6.4490730  44.5670600  14.4646190   9.7046000  42.1614740  16.0777250
   9.8242210  41.5655880  16.8172090  10.5640000  42.1984430  15.6578550
  12.0433900  42.7151930  14.6539760  11.5169120  43.2394550  14.0504900
  12.3865240  43.3479320  15.2849490   5.2189520  50.7351570  15.8097140
   4.6810610  51.4597630  15.4905840   5.4723480  50.2581910  15.0194480
   6.4714770  38.7036090  17.3353070   7.0614460  38.3951940  18.0230890
   5.6535010  38.2315840  17.4912970  11.2908200  38.3201900  17.5686090
  10.6023720  37.6583440  17.5036080  12.0114220  37.8740170  18.0134550
  11.9208600  34.9153530   3.6276350  12.2010890  34.0721430   3.9835770
  11.1474330  35.1476640   4.1415100   8.0751730  51.9702780  16.0683790
   8.0010430  52.8737920  16.3756160   7.1730570  51.6514680  16.0405860
   8.6237060  51.1361290   3.6910150   9.5187850  51.4746260   3.7128910
   8.6554690  50.4140700   3.0634430   2.2633220  46.5088340   1.9197150
   2.7008090  47.0518010   2.5754730   2.7480950  45.6835290   1.9293490
   4.0740940  47.6286380   7.0319380   3.7736480  47.5051350   7.9323290
   3.9678430  46.7694970   6.6235110  15.6031410  49.6664960  16.3976350
  15.0033400  49.7257520  15.6540270  15.7325310  48.7269940  16.5273200
  16.2989320  44.1530260   4.2380260  17.0608230  44.7226910   4.3439950
  16.3143690  43.5857460   5.0088570  17.3049290  45.0080360   9.0822190
  17.6758120  44.2247680   8.6758160  17.9451220  45.6969460   8.9039490
  14.2883050  46.3916940  14.4952510  13.4742890  46.8214100  14.7578300
  14.6957250  47.0035350  13.8821560  12.7484100  37.4709480   2.6906410
  13.1668980  37.2840460   1.8503070  12.4420160  36.6188530   3.0009340
  16.2473830  42.3833620   6.3882210  15.8717430  41.6161550   5.9563500
  15.5176950  42.7656320   6.8757140  15.6373450  41.5305140  16.0221730
  15.4059540  41.3017890  15.1219680  15.8978000  42.4504690  15.9766620
  14.0761520  36.7561570  18.8001430  14.9531700  36.7644970  19.1835430
  14.0882360  36.0192410  18.1893780  15.5224790  40.6091110   9.6889450
  16.0462270  40.1153760   9.0579620  16.1084210  40.7441470  10.4337020
  15.7014510  40.6930980  13.2109000  14.7517220  40.6594520  13.3253990
  15.8827520  41.6031090  12.9758770  15.0124760  39.8664460   5.6281860
  15.5083880  39.6335330   6.4130740  14.8140830  39.0276300   5.2119500
  16.4411920  38.5025410   8.1619540  16.3311200  38.3481450   9.1001810
  17.2019510  37.9746350   7.9194950  14.7877640  34.4419540  14.6202540
  15.4249860  35.0553680  14.9861730  14.9352530  34.4780200  13.6751770
  17.4040680  37.1043990   4.0282390  16.6092180  37.0389110   4.5575300
  17.6083960  38.0394630   4.0167740  14.3459100  51.1435540   8.0220780
  14.9418170  50.8220110   7.3455200  14.6037250  50.6707360   8.8134050
   2.2521670  47.5753450  18.1711410   2.2091300  47.2046360  19.0525870
   2.3832680  48.5131020  18.3113230   5.9527700  49.1313040  13.7721130
   5.7119060  49.3987600  12.8851650   6.8930340  49.3018770  13.8271990
   8.1582120  35.5945730  17.5277640   8.0971010  36.1867560  18.2773050
   9.0982500  35.4871690  17.3827900  10.7956680  35.2515790  17.1669930
  11.4097090  35.5695080  16.5051010  11.3406240  34.7664380  17.7865790
  17.2131860  51.1507420  14.5731770  16.7190140  51.5476290  13.8558900
  16.6045150  50.5256630  14.9669050   2.0909700  50.5215700  15.2909190
   1.4970020  50.3900400  16.0299230   2.0833540  49.6853840  14.8251290
  11.5364720  33.8147930  13.4939220  10.6624560  34.1483040  13.2912150
  11.4275470  33.3421110  14.3191090  12.4436700  36.0218800  14.8780940
  12.1150060  35.2070560  14.4982670  13.3919000  35.9788610  14.7546630
  14.8971310  51.7930840  11.8518510  14.4374280  52.5446650  11.4776530
  14.2683770  51.0737310  11.7933310   5.3267030  50.1019080  11.0266640
   5.8432050  49.4906440  10.5014900   5.9764410  50.6047860  11.5177650
   8.0662530  50.9927570  11.8535620   8.3540340  50.7381870  10.9768630
   8.5785750  50.4404930  12.4441190   9.2839540  34.7317770  12.4332130
   8.5011330  35.2063270  12.7128890   8.9902470  33.8272600  12.3245310
  13.8360610  35.4340870  10.4781220  14.2768700  35.3785970   9.6302820
  13.5668200  36.3498880  10.5491400  15.6999180  35.0656110   8.4890040
  15.6387580  34.1217330   8.3421060  16.4791210  35.1736200   9.0343500
   7.1693760  37.1504520   7.9448160   6.3568270  36.7761410   7.6044040
   7.6735400  36.3949600   8.2469350  11.6718740  33.8146970   9.1831230
  12.2748110  34.3867180   9.6579750  10.9311730  34.3786410   8.9605130
  14.8153340  34.2168530   4.4571510  15.0103970  35.1151980   4.7238940
  14.0283210  33.9855610   4.9504460   3.0005100  35.5629300   3.4947820
   3.5297860  34.7759100   3.3655770   3.6333420  36.2420490   3.7283350
   5.1942940  35.3004440   6.5493210   4.5645680  34.5991750   6.7163340
   4.6548080  36.0608570   6.3326370   8.1334890  51.9143670  19.2203820
   9.0602200  51.6787940  19.2639780   8.1185320  52.7415670  18.7389850
  16.3679950  51.4569240   6.2178070  16.5432140  50.7706980   5.5738990
  15.6701520  51.9816290   5.8254740   5.3198500  34.5788420  18.9845700
   5.0382770  35.0822020  18.2206520   5.7018200  33.7810170  18.6187830
   4.2107600  51.8464080   3.7713380   4.9426420  51.5623360   3.2237270
   4.4701270  51.6077360   4.6612760   3.3722390  47.9628810   3.7759710
   2.7431270  48.4313910   4.3245540   3.4870220  47.1178030   4.2105900
  11.9213960  33.9942000  19.5626170  11.8079410  34.3136610  20.4577690
  12.7383700  34.3954510  19.2663450  14.7012450  51.1413530  19.0444860
  15.4937770  50.6462760  18.8370820  14.9945600  51.8203670  19.6520470
  10.8272110  23.2390980  83.7978360  10.7466160  22.3245590  83.5270070
  10.4136530  23.7358050  83.0918070   8.9590150  25.0170000  85.6787630
   8.1832250  24.5370440  85.9686200   9.6103080  24.3375650  85.5043790
   2.9755980  25.3289810  86.5563390   2.1440860  25.0738520  86.9559900
   3.5836960  25.4000580  87.2921310  12.9797580  29.4230190  84.4586760
  12.5179110  28.6517430  84.7873930  13.7923130  29.4496260  84.9639210
   2.9557240  29.3629900  86.7521410   3.2585280  28.4727640  86.5731630
   3.7000830  29.9200120  86.5243660   9.2060890  31.7088200  84.0790750
   8.5872330  32.1645700  83.5085190  10.0612670  31.8639660  83.6780450
   8.3999140  27.6927190  85.6857790   8.3307420  26.7517130  85.5246920
   9.1619000  27.7828600  86.2580360   9.4304310  20.4997570  85.9126720
   9.8069130  19.6269450  85.8000390   9.3323820  20.8356270  85.0217160
   3.5609320  18.8723200  81.3744160   3.6676070  19.7726930  81.6812920
   2.6501680  18.8241170  81.0838810  13.2128430  17.9948010  82.8455060
  14.0338050  17.5044580  82.8880540  13.2462510  18.5845670  83.5986900
   5.4017050  21.8409570  85.7069340   5.9095270  22.3390540  86.3474360
   5.9330290  21.0644770  85.5308700  17.5027980  20.0114760  89.4098690
  16.7980150  20.3996470  88.8913800  17.7685900  20.7065050  90.0119620
   3.6853150  16.4808130  89.9732760   3.6871590  16.9980520  89.1678660
   2.8557460  16.0038310  89.9502690  10.0724240  26.5927440  81.4722660
   9.4541510  27.0576890  80.9085380  10.5847490  27.2854920  81.8892170
   4.9356000  26.1203310  88.1506260   4.6025380  26.7472230  88.7927330
   5.1122680  26.6465190  87.3707930  13.4489910  19.9348390  85.6182600
  12.7445480  20.2233280  86.1985710  13.8102070  20.7448500  85.2582160
   3.3668480  18.1918090  87.9803210   3.7085290  19.0360140  87.6857080
   2.4284290  18.3401830  88.0968550   4.1475100  28.0884110  89.9655440
   4.7649100  28.7635190  89.6839890   3.2868220  28.4972090  89.8742940
  15.0652690  29.5523520  87.8810080  14.3816210  30.2222630  87.8726750
  15.6046980  29.7504170  87.1154940  16.5176830  19.3803180  86.0091810
  15.5701740  19.4142160  86.1407240  16.8426820  20.1942130  86.3941170
   7.0496370  15.6800360  84.3047800   7.3571350  15.1247250  83.5883300
   6.1197070  15.8144820  84.1220790  12.6011430  31.3967650  86.5955260
  12.6138590  30.9929940  85.7277520  12.0486650  32.1714940  86.4916690
  13.8956850  28.1183870  81.6845430  13.7853180  27.1758200  81.8094850
  13.8925100  28.4799510  82.5708190  11.9996870  26.2997490  87.9237870
  12.4165660  26.0857600  87.0891330  12.7236690  26.5570280  88.4946490
   9.4377130  23.7449190  81.0407920   8.5106410  23.6786570  81.2696390
   9.5901950  24.6829320  80.9263160   9.4246210  20.0166190  78.0375080
   8.4849880  20.1780150  78.1227540   9.7429470  20.7351870  77.4911070
  15.9458970  24.6984710  88.0154110  15.1177600  24.7677800  87.5404240
  16.5409450  25.2839020  87.5469940  13.4674420  25.3069490  81.5443170
  12.8486840  24.9689040  80.8969470  13.4498870  24.6629250  82.2522360
  12.9100980  21.4854030  88.9608980  12.4972160  22.3107740  89.2148970
  12.1776930  20.8999070  88.7685340   5.0433770  24.2713930  83.8227650
   4.6390770  23.5591180  83.3273550   5.1296890  23.9267170  84.7115690
   5.5115470  27.9581490  85.9866860   5.2143760  27.3526960  85.3074640
   6.4615290  27.9958800  85.8756220   3.7562390  21.0457140  87.6026690
   4.3076980  21.1552480  86.8279940   4.2705900  21.4194740  88.3181920
  13.6001080  31.5313360  89.6489960  13.1231640  32.3385550  89.4562570
  12.9162870  30.8791690  89.8016170   4.6033900  27.6963180  92.6374660
   3.7062430  27.9203150  92.8848060   4.6286770  27.8198120  91.6886060
  11.6439120  24.5456300  78.5515920  12.0832400  23.7078730  78.4053740
  12.3567540  25.1785700  78.6380060   3.4305120  24.5676500  91.2132030
   3.2912890  25.4399300  91.5819430   2.5486480  24.2249310  91.0679970
   9.7534500  29.4852370  82.5197160  10.1930410  30.2276700  82.1052550
   9.6921390  29.7278940  83.4436120   5.2285470  30.5098200  93.4217180
   5.2000900  30.9141150  92.5545610   5.0650440  29.5808560  93.2588780
  15.2256260  15.7999110  76.8656960  14.9128920  15.8925940  77.7656030
  15.9868730  16.3780140  76.8154390  16.5833540  28.4838150  91.8781360
  16.7096600  28.2450030  90.9598540  16.6254920  27.6522690  92.3503440
  10.4450280  32.1866150  90.4476170  10.9594950  32.0974160  91.2498600
   9.6019360  32.5325850  90.7404080  12.4204680  32.4721490  79.8760170
  12.2605820  32.1824430  80.7742000  12.2551390  31.6961620  79.3405400
   4.8993060  32.2520020  81.6531790   4.7235540  31.3355560  81.4399590
   4.0448800  32.6107310  81.8929590  12.1230810  29.9809050  78.4358170
  11.4295970  29.9786340  77.7760450  12.8653670  29.5568370  78.0052340
  11.6880740  31.6071760  82.5106660  12.1437690  30.8261140  82.8245280
  12.0273260  32.3178580  83.0547840  16.4357550  20.5370610  92.8431100
  15.8201820  21.0450280  92.3146560  16.1153970  19.6368940  92.7857040
   4.2102060  16.5093980  84.7057970   3.7670210  17.2903520  84.3742490
   4.7687050  16.8323870  85.4128910   8.4971870  19.3762500  90.3093290
   8.0351240  19.5845520  91.1213230   8.0949980  18.5621850  90.0063960
  13.4976380  20.5971450  91.4389950  12.6469970  20.2977200  91.7599020
  13.3378170  20.8413460  90.5273770  10.5926090  22.0973200  93.5388740
  10.9179500  21.2636950  93.1990970  11.3806420  22.6201720  93.6867070
   7.3260880  16.1304680  79.5863800   6.7015060  16.1264550  80.3117110
   7.2391000  15.2635640  79.1899770   6.2477960  17.0541310  86.5647570
   6.5450290  17.9604140  86.4839590   6.7963520  16.5660090  85.9507140
   4.0016280  21.6327550  82.4339220   3.7757200  21.4164720  83.3385840
   3.2208810  22.0656010  82.0885190  11.2314040  21.6390920  81.0329870
  10.6322930  22.3626720  80.8493490  11.7793650  21.5767700  80.2506320
   6.4415490  22.5313130  93.0999490   6.3459090  21.5907860  92.9499890
   7.2847470  22.7528200  92.7047560   9.8378910  20.2754460  83.0633150
  10.2308480  20.5926660  82.2501840  10.1995760  19.3966340  83.1777670
  10.4234050  22.8660210  87.1583930   9.6915170  23.3747020  87.5074030
  10.0258390  22.0490190  86.8572710   6.8611440  19.5414410  85.5636420
   6.8647500  19.1004360  84.7140960   7.7562560  19.8631740  85.6708240
   2.7113820  19.4240900  84.5230630   2.3713870  19.9016130  85.2797680
   1.9491140  18.9706020  84.1631730   6.9231590  20.5426490  78.5543180
   7.0444410  20.5012970  79.5029000   6.5380100  21.4050640  78.3989910
  10.8859960  18.3193890  86.5706870  10.9032700  18.7702540  87.4148720
  10.6375540  17.4199530  86.7840310   5.9353090  22.8527630  77.9526480
   5.3669990  22.4045880  77.3262390   6.6442090  23.2120410  77.4191630
  14.3130710  15.7326070  92.4093250  14.6376480  15.0015730  92.9351230
  14.3487220  15.4139710  91.5074240   7.1619410  23.6016190  87.3101830
   7.5289540  23.1274760  88.0563170   6.9724470  24.4757760  87.6510170
   4.9518780  22.6424830  89.6286040   4.6475850  23.5216810  89.8536400
   5.9065240  22.7024620  89.6643480   3.4800570  26.8485820  80.2252890
   2.7062830  26.3083440  80.0651610   4.2095200  26.3292430  79.8870650
  14.2388550  25.8451180  86.0179280  14.9587670  26.3406470  85.6275390
  14.0370370  25.1669070  85.3733150   9.6998490  17.2389140  80.1608670
   8.8863100  16.7402310  80.0853980   9.5060440  18.0787390  79.7445020
   9.6207350  25.9160240  91.9048280   9.5544660  24.9955910  91.6505870
   8.9912490  26.0135680  92.6192920  12.4146880  21.6108790  78.4570830
  13.3026500  21.9226020  78.2822170  12.3851970  20.7381040  78.0651410
   3.5237970  26.5166200  83.8631700   4.0416640  25.7134460  83.8088590
   3.0721990  26.4545340  84.7048530   8.4107470  27.7832480  79.1359000
   8.7523170  28.5274710  78.6402320   7.5820180  28.0963600  79.4983830
   4.2095630  23.9411810  93.6596950   3.9095770  24.0868990  92.7624770
   4.9806870  23.3817100  93.5670340   9.5524080  28.7380810  91.6552080
   9.5668620  27.8061770  91.4370990   8.8449180  28.8240570  92.2941850
  14.6861150  22.9220630  77.9250690  14.6024870  23.3534850  77.0747130
  15.4055340  23.3818980  78.3577510  15.7635290  25.3788150  91.0020660
  15.0383480  25.9716930  90.8050050  16.2910750  25.3711690  90.2034030
  15.7148400  29.7762890  80.6532820  15.0724560  29.1218510  80.9276540
  15.3279060  30.1817980  79.8773490  11.2934880  27.1048320  84.5004510
  11.6458700  26.5076450  83.8405880  10.4097210  26.7792550  84.6712760
   7.3798160  27.8646010  81.9074920   8.0669290  28.4115220  82.2882510
   6.5930580  28.4086740  81.9424530   6.6825370  24.8692040  81.5200280
   7.1388150  25.6797290  81.7460470   6.3313580  24.5515180  82.3518770
   8.9857980  30.3798380  88.7492580   9.6300200  30.5857760  89.4266000
   9.3487420  29.6186780  88.2963430   2.5837150  15.2129690  81.9922800
   2.4551780  15.2047590  82.9407720   1.7599170  15.5512780  81.6413810
  10.2590060  28.3830730  87.4670030  10.9012290  27.6823890  87.5802200
  10.7839410  29.1629170  87.2866920  14.1045780  28.6679350  77.1909170
  13.8783360  27.9509790  77.7833810  13.7141980  28.4191790  76.3530920
  12.0327680  29.1825630  90.6706090  12.3683920  29.7692320  91.3484010
  11.1128020  29.0518340  90.9003880  13.6862030  26.5851290  78.8523330
  13.3983730  27.0463980  79.6401210  14.4814200  26.1249060  79.1207550
   5.9030430  30.0777410  78.7827300   5.8940530  30.8107100  78.1671810
   4.9828790  29.8308990  78.8754260  11.0769860  19.4643120  89.2030950
  11.4450680  18.6438330  89.5310520  10.2168060  19.5245010  89.6186600
  14.4431890  18.4200060  80.0118510  13.8145050  18.5245730  79.2976740
  13.9483810  18.6396840  80.8012390   8.8890030  30.1405650  77.4452490
   8.9902010  29.9369640  76.5154470   7.9891770  29.8863930  77.6500270
   6.4115920  20.6986010  81.4276390   5.7032070  21.1672350  81.8690000
   6.6960400  20.0408020  82.0621580   8.0371850  22.1182710  89.4268920
   8.5357100  22.5928530  90.0920770   8.1794800  21.1946230  89.6338950
  10.4431350  17.4236670  82.8672180  10.3199130  17.4422800  81.9181690
  11.3915910  17.4715610  82.9870580   7.5308140  32.6591970  82.1400160
   7.7849640  32.6213360  81.2179530   6.5820620  32.5325300  82.1328410
   4.6150940  19.0071090  78.8027100   5.4641470  19.4441240  78.7367290
   4.2482210  19.3191350  79.6299160  15.2438710  18.3350670  90.2697310
  14.7412310  19.0756070  90.6091120  16.0595370  18.7234670  89.9534100
  13.5360720  23.5783850  83.7158670  12.5950860  23.5934080  83.8906360
  13.8504790  22.7919810  84.1618970   3.5142360  25.2603450  77.2762630
   4.2805630  25.1484810  77.8388060   3.5917050  24.5641420  76.6239400
   2.2089120  22.6928520  77.9595520   2.2892710  21.7456030  78.0712920
   3.1008870  23.0235400  78.0656180  15.5386300  30.7492700  85.3912930
  15.6633720  31.5723870  85.8636740  16.4051860  30.5383430  85.0437080
   3.0103830  32.8423910  85.0630060   3.7466310  32.2939370  85.3338630
   3.3944750  33.7079920  84.9236050   6.1206140  32.0154220  76.8855630
   6.9134750  32.3043050  76.4337420   5.6010490  31.5846390  76.2068110
  12.2827110  31.8630140  92.8100460  13.2348860  31.7788160  92.7600700
  12.1355330  32.5271850  93.4834250  15.1736310  31.2424350  78.3092370
  14.8877820  30.8289490  77.4946550  14.9755860  32.1712060  78.1892890
   6.6383540  27.2357630  76.7497980   6.5334180  26.6209980  77.4759360
   6.4707760  26.7123520  75.9660990   6.7897860  25.9214430  92.7287210
   6.0243530  26.4899430  92.6441880   6.9713820  25.6290640  91.8355440
   9.8786270  26.2977660  77.3539970   9.3296370  26.7446960  77.9982710
  10.5005530  25.7926910  77.8777640  13.9321210  27.6519760  93.2862230
  14.6730680  27.9895520  92.7829690  13.1693890  27.8211820  92.7332000
   5.5461390  25.2568580  79.2505270   5.9677810  25.0908450  80.0936660
   5.6712230  24.4468810  78.7560410   3.7088810  21.2365130  92.0576250
   3.1785270  20.7456080  91.4299590   4.3776880  21.6649330  91.5234180
   8.0589030  24.2806190  76.4982370   8.5794690  23.5655210  76.1323520
   8.7057430  24.9192060  76.7982880  12.6066870  25.7034590  91.8217440
  13.0207890  25.8579670  92.6707860  11.6717870  25.8289810  91.9843220
  13.0789040  23.0430750  93.8256590  13.6609810  22.2883070  93.7377070
  13.2550810  23.5738190  93.0488070   4.1961110  18.2027500  92.1373540
   4.1017980  17.5848250  91.4124410   3.6158500  18.9293790  91.9103450
   6.9622550  16.7600740  89.1700930   6.5139850  16.7825000  88.3246480
   6.3287750  16.3619760  89.7671230   7.3682100  25.6555070  89.7913370
   7.7870210  26.4987800  89.6189610   6.4490730  25.7927110  89.5620150
   9.7046000  23.3871250  91.1751210   9.8242210  22.7912390  91.9146050
  10.5640000  23.4240940  90.7552510  12.0433900  23.9408440  89.7513720
  11.5169120  24.4651060  89.1478860  12.3865240  24.5735830  90.3823450
   4.4420290  21.3301810  76.1963430   4.2409350  20.4669170  76.5576770
   4.2712340  21.2435170  75.2585030   5.2189520  31.9608080  90.9071100
   4.6810610  32.6854140  90.5879800   5.4723480  31.4838420  90.1168440
   6.4714770  19.9292600  92.4327030   7.0614460  19.6208450  93.1204850
   5.6535010  19.4572350  92.5886930  11.2908200  19.5458410  92.6660050
  10.6023720  18.8839950  92.6010040  12.0114220  19.0996680  93.1108510
  11.9208600  16.1410040  78.7250310  12.2010890  15.2977940  79.0809730
  11.1474330  16.3733150  79.2389060   3.2403090  18.4302430  76.1841310
   3.5428990  18.4369860  75.2760460   3.9797680  18.0800290  76.6808970
   8.0751730  33.1959290  91.1657750   8.0010430  34.0994430  91.4730120
   7.1730570  32.8771190  91.1379820   6.4588020  17.3737050  77.1697510
   6.1110020  16.6961040  76.5899960   6.6600790  16.9126560  77.9840900
   8.6237060  32.3617800  78.7884110   9.5187850  32.7002770  78.8102870
   8.6554690  31.6397210  78.1608390   2.2633220  27.7344850  77.0171110
   2.7008090  28.2774520  77.6728690   2.7480950  26.9091800  77.0267450
   4.0740940  28.8542890  82.1293340   3.7736480  28.7307860  83.0297250
   3.9678430  27.9951480  81.7209070  15.6031410  30.8921470  91.4950310
  15.0033400  30.9514030  90.7514230  15.7325310  29.9526450  91.6247160
  16.8432860  28.6339290  76.8320020  16.0125820  28.7015940  77.3027250
  17.0204690  29.5243410  76.5286880  16.2989320  25.3786770  79.3354220
  17.0608230  25.9483420  79.4413910  16.3143690  24.8113970  80.1062530
  17.3049290  26.2336870  84.1796150  17.6758120  25.4504190  83.7732120
  17.9451220  26.9225970  84.0013450  14.2883050  27.6173450  89.5926470
  13.4742890  28.0470610  89.8552260  14.6957250  28.2291860  88.9795520
  16.3508490  25.6721140  76.4926740  16.6257330  26.5800020  76.3645960
  16.1619230  25.6083670  77.4288730  12.7484100  18.6965990  77.7880370
  13.1668980  18.5096970  76.9477030  12.4420160  17.8445040  78.0983300
  16.2473830  23.6090130  81.4856170  15.8717430  22.8418060  81.0537460
  15.5176950  23.9912830  81.9731100  15.6373450  22.7561650  91.1195690
  15.4059540  22.5274400  90.2193640  15.8978000  23.6761200  91.0740580
  15.5224790  21.8347620  84.7863410  16.0462270  21.3410270  84.1553580
  16.1084210  21.9697980  85.5310980  15.7014510  21.9187490  88.3082960
  14.7517220  21.8851030  88.4227950  15.8827520  22.8287600  88.0732730
  15.0124760  21.0920970  80.7255820  15.5083880  20.8591840  81.5104700
  14.8140830  20.2532810  80.3093460  16.4411920  19.7281920  83.2593500
  16.3311200  19.5737960  84.1975770  17.2019510  19.2002860  83.0168910
  14.7877640  15.6676050  89.7176500  15.4249860  16.2810190  90.0835690
  14.9352530  15.7036710  88.7725730  17.3302190  17.5589840  76.4999640
  18.2551500  17.4271020  76.2917930  17.3077980  17.6382660  77.4536090
  17.4040680  18.3300500  79.1256350  16.6092180  18.2645620  79.6549260
  17.6083960  19.2651140  79.1141700  14.3459100  32.3692050  83.1194740
  14.9418170  32.0476620  82.4429160  14.6037250  31.8963870  83.9108010
   5.9527700  30.3569550  88.8695090   5.7119060  30.6244110  87.9825610
   6.8930340  30.5275280  88.9245950   8.1582120  16.8202240  92.6251600
   8.0971010  17.4124070  93.3747010   9.0982500  16.7128200  92.4801860
  10.7956680  16.4772300  92.2643890  11.4097090  16.7951590  91.6024970
  11.3406240  15.9920890  92.8839750  17.2131860  32.3763930  89.6705730
  16.7190140  32.7732800  88.9532860  16.6045150  31.7513140  90.0643010
   2.0909700  31.7472210  90.3883150   1.4970020  31.6156910  91.1273190
   2.0833540  30.9110350  89.9225250  11.5364720  15.0404440  88.5913180
  10.6624560  15.3739550  88.3886110  11.4275470  14.5677620  89.4165050
  12.4436700  17.2475310  89.9754900  12.1150060  16.4327070  89.5956630
  13.3919000  17.2045120  89.8520590  14.8971310  33.0187350  86.9492470
  14.4374280  33.7703160  86.5750490  14.2683770  32.2993820  86.8907270
   5.3267030  31.3275590  86.1240600   5.8432050  30.7162950  85.5988860
   5.9764410  31.8304370  86.6151610   8.0662530  32.2184080  86.9509580
   8.3540340  31.9638380  86.0742590   8.5785750  31.6661440  87.5415150
   9.2839540  15.9574280  87.5306090   8.5011330  16.4319780  87.8102850
   8.9902470  15.0529110  87.4219270  13.8360610  16.6597380  85.5755180
  14.2768700  16.6042480  84.7276780  13.5668200  17.5755390  85.6465360
  15.6999180  16.2912620  83.5864000  15.6387580  15.3473840  83.4395020
  16.4791210  16.3992710  84.1317460   7.1693760  18.3761030  83.0422120
   6.3568270  18.0017920  82.7018000   7.6735400  17.6206110  83.3443310
  11.6718740  15.0403480  84.2805190  12.2748110  15.6123690  84.7553710
  10.9311730  15.6042920  84.0579090  14.8153340  15.4425040  79.5545470
  15.0103970  16.3408490  79.8212900  14.0283210  15.2112120  80.0478420
   3.0005100  16.7885810  78.5921780   3.5297860  16.0015610  78.4629730
   3.6333420  17.4677000  78.8257310   5.1942940  16.5260950  81.6467170
   4.5645680  15.8248260  81.8137300   4.6548080  17.2865080  81.4300330
  16.3679950  32.6825750  81.3152030  16.5432140  31.9963490  80.6712950
  15.6701520  33.2072800  80.9228700   4.2107600  33.0720590  78.8687340
   4.9426420  32.7879870  78.3211230   4.4701270  32.8333870  79.7586720
   3.3722390  29.1885320  78.8733670   2.7431270  29.6570420  79.4219500
   3.4870220  28.3434540  79.3079860  10.8272110  23.2390980  65.0234870
  10.7466160  22.3245590  64.7526580  10.4136530  23.7358050  64.3174580
   8.9590150  25.0170000  66.9044140   8.1832250  24.5370440  67.1942710
   9.6103080  24.3375650  66.7300300   2.9755980  25.3289810  67.7819900
   2.1440860  25.0738520  68.1816410   3.5836960  25.4000580  68.5177820
  12.9797580  29.4230190  65.6843270  12.5179110  28.6517430  66.0130440
  13.7923130  29.4496260  66.1895720   2.9557240  29.3629900  67.9777920
   3.2585280  28.4727640  67.7988140   3.7000830  29.9200120  67.7500170
   9.2060890  31.7088200  65.3047260   8.5872330  32.1645700  64.7341700
  10.0612670  31.8639660  64.9036960   8.3999140  27.6927190  66.9114300
   8.3307420  26.7517130  66.7503430   9.1619000  27.7828600  67.4836870
   9.4304310  20.4997570  67.1383230   9.8069130  19.6269450  67.0256900
   9.3323820  20.8356270  66.2473670   3.5609320  18.8723200  62.6000670
   3.6676070  19.7726930  62.9069430   2.6501680  18.8241170  62.3095320
  13.2128430  17.9948010  64.0711570  14.0338050  17.5044580  64.1137050
  13.2462510  18.5845670  64.8243410   5.4017050  21.8409570  66.9325850
   5.9095270  22.3390540  67.5730870   5.9330290  21.0644770  66.7565210
  17.5027980  20.0114760  70.6355200  16.7980150  20.3996470  70.1170310
  17.7685900  20.7065050  71.2376130   3.6853150  16.4808130  71.1989270
   3.6871590  16.9980520  70.3935170   2.8557460  16.0038310  71.1759200
  10.0724240  26.5927440  62.6979170   9.4541510  27.0576890  62.1341890
  10.5847490  27.2854920  63.1148680   4.9356000  26.1203310  69.3762770
   4.6025380  26.7472230  70.0183840   5.1122680  26.6465190  68.5964440
  13.4489910  19.9348390  66.8439110  12.7445480  20.2233280  67.4242220
  13.8102070  20.7448500  66.4838670   3.3668480  18.1918090  69.2059720
   3.7085290  19.0360140  68.9113590   2.4284290  18.3401830  69.3225060
   4.1475100  28.0884110  71.1911950   4.7649100  28.7635190  70.9096400
   3.2868220  28.4972090  71.0999450  15.0652690  29.5523520  69.1066590
  14.3816210  30.2222630  69.0983260  15.6046980  29.7504170  68.3411450
  16.5176830  19.3803180  67.2348320  15.5701740  19.4142160  67.3663750
  16.8426820  20.1942130  67.6197680   7.0496370  15.6800360  65.5304310
   7.3571350  15.1247250  64.8139810   6.1197070  15.8144820  65.3477300
  12.6011430  31.3967650  67.8211770  12.6138590  30.9929940  66.9534030
  12.0486650  32.1714940  67.7173200  13.8956850  28.1183870  62.9101940
  13.7853180  27.1758200  63.0351360  13.8925100  28.4799510  63.7964700
  11.9996870  26.2997490  69.1494380  12.4165660  26.0857600  68.3147840
  12.7236690  26.5570280  69.7203000   9.4377130  23.7449190  62.2664430
   8.5106410  23.6786570  62.4952900   9.5901950  24.6829320  62.1519670
   9.4246210  20.0166190  59.2631590   8.4849880  20.1780150  59.3484050
   9.7429470  20.7351870  58.7167580  15.9458970  24.6984710  69.2410620
  15.1177600  24.7677800  68.7660750  16.5409450  25.2839020  68.7726450
  13.4674420  25.3069490  62.7699680  12.8486840  24.9689040  62.1225980
  13.4498870  24.6629250  63.4778870  12.9100980  21.4854030  70.1865490
  12.4972160  22.3107740  70.4405480  12.1776930  20.8999070  69.9941850
   5.0433770  24.2713930  65.0484160   4.6390770  23.5591180  64.5530060
   5.1296890  23.9267170  65.9372200   5.5115470  27.9581490  67.2123370
   5.2143760  27.3526960  66.5331150   6.4615290  27.9958800  67.1012730
   3.7562390  21.0457140  68.8283200   4.3076980  21.1552480  68.0536450
   4.2705900  21.4194740  69.5438430  13.6001080  31.5313360  70.8746470
  13.1231640  32.3385550  70.6819080  12.9162870  30.8791690  71.0272680
   4.6033900  27.6963180  73.8631170   3.7062430  27.9203150  74.1104570
   4.6286770  27.8198120  72.9142570  11.6439120  24.5456300  59.7772430
  12.0832400  23.7078730  59.6310250  12.3567540  25.1785700  59.8636570
   3.4305120  24.5676500  72.4388540   3.2912890  25.4399300  72.8075940
   2.5486480  24.2249310  72.2936480   9.7534500  29.4852370  63.7453670
  10.1930410  30.2276700  63.3309060   9.6921390  29.7278940  64.6692630
   5.2285470  30.5098200  74.6473690   5.2000900  30.9141150  73.7802120
   5.0650440  29.5808560  74.4845290  15.2256260  15.7999110  58.0913470
  14.9128920  15.8925940  58.9912540  15.9868730  16.3780140  58.0410900
  17.1800290  31.2925300  75.9437860  17.6560010  31.7708190  76.6226940
  17.8007450  31.2242790  75.2183360  16.5833540  28.4838150  73.1037870
  16.7096600  28.2450030  72.1855050  16.6254920  27.6522690  73.5759950
  10.4450280  32.1866150  71.6732680  10.9594950  32.0974160  72.4755110
   9.6019360  32.5325850  71.9660590  12.4204680  32.4721490  61.1016680
  12.2605820  32.1824430  61.9998510  12.2551390  31.6961620  60.5661910
   4.8993060  32.2520020  62.8788300   4.7235540  31.3355560  62.6656100
   4.0448800  32.6107310  63.1186100  12.1230810  29.9809050  59.6614680
  11.4295970  29.9786340  59.0016960  12.8653670  29.5568370  59.2308850
  11.6880740  31.6071760  63.7363170  12.1437690  30.8261140  64.0501790
  12.0273260  32.3178580  64.2804350  16.4357550  20.5370610  74.0687610
  15.8201820  21.0450280  73.5403070  16.1153970  19.6368940  74.0113550
   4.2102060  16.5093980  65.9314480   3.7670210  17.2903520  65.5999000
   4.7687050  16.8323870  66.6385420   8.4971870  19.3762500  71.5349800
   8.0351240  19.5845520  72.3469740   8.0949980  18.5621850  71.2320470
  13.4976380  20.5971450  72.6646460  12.6469970  20.2977200  72.9855530
  13.3378170  20.8413460  71.7530280  10.5926090  22.0973200  74.7645250
  10.9179500  21.2636950  74.4247480  11.3806420  22.6201720  74.9123580
   7.3260880  16.1304680  60.8120310   6.7015060  16.1264550  61.5373620
   7.2391000  15.2635640  60.4156280   6.2477960  17.0541310  67.7904080
   6.5450290  17.9604140  67.7096100   6.7963520  16.5660090  67.1763650
   4.0016280  21.6327550  63.6595730   3.7757200  21.4164720  64.5642350
   3.2208810  22.0656010  63.3141700  11.2314040  21.6390920  62.2586380
  10.6322930  22.3626720  62.0750000  11.7793650  21.5767700  61.4762830
   6.4415490  22.5313130  74.3256000   6.3459090  21.5907860  74.1756400
   7.2847470  22.7528200  73.9304070   9.8378910  20.2754460  64.2889660
  10.2308480  20.5926660  63.4758350  10.1995760  19.3966340  64.4034180
   8.1471080  19.0261770  75.5486520   7.4569400  18.8333970  76.1832610
   8.8903380  19.3096410  76.0810820  10.4234050  22.8660210  68.3840440
   9.6915170  23.3747020  68.7330540  10.0258390  22.0490190  68.0829220
   6.8611440  19.5414410  66.7892930   6.8647500  19.1004360  65.9397470
   7.7562560  19.8631740  66.8964750   2.7113820  19.4240900  65.7487140
   2.3713870  19.9016130  66.5054190   1.9491140  18.9706020  65.3888240
   6.9231590  20.5426490  59.7799690   7.0444410  20.5012970  60.7285510
   6.5380100  21.4050640  59.6246420  10.8859960  18.3193890  67.7963380
  10.9032700  18.7702540  68.6405230  10.6375540  17.4199530  68.0096820
   5.9353090  22.8527630  59.1782990   5.3669990  22.4045880  58.5518900
   6.6442090  23.2120410  58.6448140  14.3130710  15.7326070  73.6349760
  14.6376480  15.0015730  74.1607740  14.3487220  15.4139710  72.7330750
   7.1619410  23.6016190  68.5358340   7.5289540  23.1274760  69.2819680
   6.9724470  24.4757760  68.8766680   4.9518780  22.6424830  70.8542550
   4.6475850  23.5216810  71.0792910   5.9065240  22.7024620  70.8899990
   3.4800570  26.8485820  61.4509400   2.7062830  26.3083440  61.2908120
   4.2095200  26.3292430  61.1127160  14.2388550  25.8451180  67.2435790
  14.9587670  26.3406470  66.8531900  14.0370370  25.1669070  66.5989660
   9.6998490  17.2389140  61.3865180   8.8863100  16.7402310  61.3110490
   9.5060440  18.0787390  60.9701530   9.6207350  25.9160240  73.1304790
   9.5544660  24.9955910  72.8762380   8.9912490  26.0135680  73.8449430
  12.4146880  21.6108790  59.6827340  13.3026500  21.9226020  59.5078680
  12.3851970  20.7381040  59.2907920   3.5237970  26.5166200  65.0888210
   4.0416640  25.7134460  65.0345100   3.0721990  26.4545340  65.9305040
   8.4107470  27.7832480  60.3615510   8.7523170  28.5274710  59.8658830
   7.5820180  28.0963600  60.7240340   4.2095630  23.9411810  74.8853460
   3.9095770  24.0868990  73.9881280   4.9806870  23.3817100  74.7926850
   9.5524080  28.7380810  72.8808590   9.5668620  27.8061770  72.6627500
   8.8449180  28.8240570  73.5198360  14.6861150  22.9220630  59.1507200
  14.6024870  23.3534850  58.3003640  15.4055340  23.3818980  59.5834020
  15.7635290  25.3788150  72.2277170  15.0383480  25.9716930  72.0306560
  16.2910750  25.3711690  71.4290540  15.7148400  29.7762890  61.8789330
  15.0724560  29.1218510  62.1533050  15.3279060  30.1817980  61.1030000
  11.2934880  27.1048320  65.7261020  11.6458700  26.5076450  65.0662390
  10.4097210  26.7792550  65.8969270   7.3798160  27.8646010  63.1331430
   8.0669290  28.4115220  63.5139020   6.5930580  28.4086740  63.1681040
   6.6825370  24.8692040  62.7456790   7.1388150  25.6797290  62.9716980
   6.3313580  24.5515180  63.5775280   8.9857980  30.3798380  69.9749090
   9.6300200  30.5857760  70.6522510   9.3487420  29.6186780  69.5219940
   2.5837150  15.2129690  63.2179310   2.4551780  15.2047590  64.1664230
   1.7599170  15.5512780  62.8670320  10.2590060  28.3830730  68.6926540
  10.9012290  27.6823890  68.8058710  10.7839410  29.1629170  68.5123430
  14.1045780  28.6679350  58.4165680  13.8783360  27.9509790  59.0090320
  13.7141980  28.4191790  57.5787430  12.0327680  29.1825630  71.8962600
  12.3683920  29.7692320  72.5740520  11.1128020  29.0518340  72.1260390
  13.6862030  26.5851290  60.0779840  13.3983730  27.0463980  60.8657720
  14.4814200  26.1249060  60.3464060   7.8616260  29.2316960  75.0650660
   7.5413130  28.5126200  75.6096350   7.1874620  29.9072030  75.1386720
   5.9030430  30.0777410  60.0083810   5.8940530  30.8107100  59.3928320
   4.9828790  29.8308990  60.1010770  11.0769860  19.4643120  70.4287460
  11.4450680  18.6438330  70.7567030  10.2168060  19.5245010  70.8443110
  14.4431890  18.4200060  61.2375020  13.8145050  18.5245730  60.5233250
  13.9483810  18.6396840  62.0268900   8.8890030  30.1405650  58.6709000
   8.9902010  29.9369640  57.7410980   7.9891770  29.8863930  58.8756780
   6.4115920  20.6986010  62.6532900   5.7032070  21.1672350  63.0946510
   6.6960400  20.0408020  63.2878090   8.0371850  22.1182710  70.6525430
   8.5357100  22.5928530  71.3177280   8.1794800  21.1946230  70.8595460
  10.4431350  17.4236670  64.0928690  10.3199130  17.4422800  63.1438200
  11.3915910  17.4715610  64.2127090   7.5308140  32.6591970  63.3656670
   7.7849640  32.6213360  62.4436040   6.5820620  32.5325300  63.3584920
   4.6150940  19.0071090  60.0283610   5.4641470  19.4441240  59.9623800
   4.2482210  19.3191350  60.8555670  15.2438710  18.3350670  71.4953820
  14.7412310  19.0756070  71.8347630  16.0595370  18.7234670  71.1790610
  13.5360720  23.5783850  64.9415180  12.5950860  23.5934080  65.1162870
  13.8504790  22.7919810  65.3875480   3.5142360  25.2603450  58.5019140
   4.2805630  25.1484810  59.0644570   3.5917050  24.5641420  57.8495910
   2.2089120  22.6928520  59.1852030   2.2892710  21.7456030  59.2969430
   3.1008870  23.0235400  59.2912690  15.5386300  30.7492700  66.6169440
  15.6633720  31.5723870  67.0893250  16.4051860  30.5383430  66.2693590
   3.0103830  32.8423910  66.2886570   3.7466310  32.2939370  66.5595140
   3.3944750  33.7079920  66.1492560   2.0162110  32.0269980  75.4772150
   2.8174840  32.3482030  75.8907550   1.5013930  31.6665560  76.1992060
   6.1206140  32.0154220  58.1112140   6.9134750  32.3043050  57.6593930
   5.6010490  31.5846390  57.4324620  10.8526740  28.1349850  75.4247560
  10.2464900  28.1581450  74.6843310  10.5480850  27.4032890  75.9614810
  12.2827110  31.8630140  74.0356970  13.2348860  31.7788160  73.9857210
  12.1355330  32.5271850  74.7090760  15.1736310  31.2424350  59.5348880
  14.8877820  30.8289490  58.7203060  14.9755860  32.1712060  59.4149400
   6.6383540  27.2357630  57.9754490   6.5334180  26.6209980  58.7015870
   6.4707760  26.7123520  57.1917500   6.7897860  25.9214430  73.9543720
   6.0243530  26.4899430  73.8698390   6.9713820  25.6290640  73.0611950
   9.8786270  26.2977660  58.5796480   9.3296370  26.7446960  59.2239220
  10.5005530  25.7926910  59.1034150  13.9321210  27.6519760  74.5118740
  14.6730680  27.9895520  74.0086200  13.1693890  27.8211820  73.9588510
   1.7683000  22.6573030  75.3158270   1.8088340  22.3586900  76.2243500
   2.6228500  23.0580640  75.1565790   5.5461390  25.2568580  60.4761780
   5.9677810  25.0908450  61.3193170   5.6712230  24.4468810  59.9816920
   3.7088810  21.2365130  73.2832760   3.1785270  20.7456080  72.6556100
   4.3776880  21.6649330  72.7490690   8.0589030  24.2806190  57.7238880
   8.5794690  23.5655210  57.3580030   8.7057430  24.9192060  58.0239390
  12.6066870  25.7034590  73.0473950  13.0207890  25.8579670  73.8964370
  11.6717870  25.8289810  73.2099730  13.0789040  23.0430750  75.0513100
  13.6609810  22.2883070  74.9633580  13.2550810  23.5738190  74.2744580
   4.1961110  18.2027500  73.3630050   4.1017980  17.5848250  72.6380920
   3.6158500  18.9293790  73.1359960   6.9622550  16.7600740  70.3957440
   6.5139850  16.7825000  69.5502990   6.3287750  16.3619760  70.9927740
   7.3682100  25.6555070  71.0169880   7.7870210  26.4987800  70.8446120
   6.4490730  25.7927110  70.7876660   9.7046000  23.3871250  72.4007720
   9.8242210  22.7912390  73.1402560  10.5640000  23.4240940  71.9809020
  12.0433900  23.9408440  70.9770230  11.5169120  24.4651060  70.3735370
  12.3865240  24.5735830  71.6079960   4.4420290  21.3301810  57.4219940
   4.2409350  20.4669170  57.7833280   4.2712340  21.2435170  56.4841540
   5.2189520  31.9608080  72.1327610   4.6810610  32.6854140  71.8136310
   5.4723480  31.4838420  71.3424950   6.4714770  19.9292600  73.6583540
   7.0614460  19.6208450  74.3461360   5.6535010  19.4572350  73.8143440
  11.2908200  19.5458410  73.8916560  10.6023720  18.8839950  73.8266550
  12.0114220  19.0996680  74.3365020  11.9208600  16.1410040  59.9506820
  12.2010890  15.2977940  60.3066240  11.1474330  16.3733150  60.4645570
   3.2403090  18.4302430  57.4097820   3.5428990  18.4369860  56.5016970
   3.9797680  18.0800290  57.9065480   8.0751730  33.1959290  72.3914260
   8.0010430  34.0994430  72.6986630   7.1730570  32.8771190  72.3636330
   6.4588020  17.3737050  58.3954020   6.1110020  16.6961040  57.8156470
   6.6600790  16.9126560  59.2097410   8.6237060  32.3617800  60.0140620
   9.5187850  32.7002770  60.0359380   8.6554690  31.6397210  59.3864900
   2.2633220  27.7344850  58.2427620   2.7008090  28.2774520  58.8985200
   2.7480950  26.9091800  58.2523960   4.0740940  28.8542890  63.3549850
   3.7736480  28.7307860  64.2553760   3.9678430  27.9951480  62.9465580
  15.6031410  30.8921470  72.7206820  15.0033400  30.9514030  71.9770740
  15.7325310  29.9526450  72.8503670  16.8432860  28.6339290  58.0576530
  16.0125820  28.7015940  58.5283760  17.0204690  29.5243410  57.7543390
  16.2989320  25.3786770  60.5610730  17.0608230  25.9483420  60.6670420
  16.3143690  24.8113970  61.3319040  17.3049290  26.2336870  65.4052660
  17.6758120  25.4504190  64.9988630  17.9451220  26.9225970  65.2269960
  14.2883050  27.6173450  70.8182980  13.4742890  28.0470610  71.0808770
  14.6957250  28.2291860  70.2052030  16.3508490  25.6721140  57.7183250
  16.6257330  26.5800020  57.5902470  16.1619230  25.6083670  58.6545240
  12.7484100  18.6965990  59.0136880  13.1668980  18.5096970  58.1733540
  12.4420160  17.8445040  59.3239810  16.2473830  23.6090130  62.7112680
  15.8717430  22.8418060  62.2793970  15.5176950  23.9912830  63.1987610
  15.6373450  22.7561650  72.3452200  15.4059540  22.5274400  71.4450150
  15.8978000  23.6761200  72.2997090  14.0761520  17.9818080  75.1231900
  14.9531700  17.9901480  75.5065900  14.0882360  17.2448920  74.5124250
  15.5224790  21.8347620  66.0119920  16.0462270  21.3410270  65.3810090
  16.1084210  21.9697980  66.7567490  15.7014510  21.9187490  69.5339470
  14.7517220  21.8851030  69.6484460  15.8827520  22.8287600  69.2989240
  15.0124760  21.0920970  61.9512330  15.5083880  20.8591840  62.7361210
  14.8140830  20.2532810  61.5349970  16.4411920  19.7281920  64.4850010
  16.3311200  19.5737960  65.4232280  17.2019510  19.2002860  64.2425420
  14.7877640  15.6676050  70.9433010  15.4249860  16.2810190  71.3092200
  14.9352530  15.7036710  69.9982240  17.3302190  17.5589840  57.7256150
  18.2551500  17.4271020  57.5174440  17.3077980  17.6382660  58.6792600
  17.4040680  18.3300500  60.3512860  16.6092180  18.2645620  60.8805770
  17.6083960  19.2651140  60.3398210  14.3459100  32.3692050  64.3451250
  14.9418170  32.0476620  63.6685670  14.6037250  31.8963870  65.1364520
   2.2521670  28.8009960  74.4941880   2.2091300  28.4302870  75.3756340
   2.3832680  29.7387530  74.6343700   5.9527700  30.3569550  70.0951600
   5.7119060  30.6244110  69.2082120   6.8930340  30.5275280  70.1502460
   8.1582120  16.8202240  73.8508110   8.0971010  17.4124070  74.6003520
   9.0982500  16.7128200  73.7058370  10.7956680  16.4772300  73.4900400
  11.4097090  16.7951590  72.8281480  11.3406240  15.9920890  74.1096260
  17.2131860  32.3763930  70.8962240  16.7190140  32.7732800  70.1789370
  16.6045150  31.7513140  71.2899520   2.0909700  31.7472210  71.6139660
   1.4970020  31.6156910  72.3529700   2.0833540  30.9110350  71.1481760
  11.5364720  15.0404440  69.8169690  10.6624560  15.3739550  69.6142620
  11.4275470  14.5677620  70.6421560  12.4436700  17.2475310  71.2011410
  12.1150060  16.4327070  70.8213140  13.3919000  17.2045120  71.0777100
  14.8971310  33.0187350  68.1748980  14.4374280  33.7703160  67.8007000
  14.2683770  32.2993820  68.1163780   5.3267030  31.3275590  67.3497110
   5.8432050  30.7162950  66.8245370   5.9764410  31.8304370  67.8408120
   8.0662530  32.2184080  68.1766090   8.3540340  31.9638380  67.2999100
   8.5785750  31.6661440  68.7671660   9.2839540  15.9574280  68.7562600
   8.5011330  16.4319780  69.0359360   8.9902470  15.0529110  68.6475780
  13.8360610  16.6597380  66.8011690  14.2768700  16.6042480  65.9533290
  13.5668200  17.5755390  66.8721870  15.6999180  16.2912620  64.8120510
  15.6387580  15.3473840  64.6651530  16.4791210  16.3992710  65.3573970
   7.1693760  18.3761030  64.2678630   6.3568270  18.0017920  63.9274510
   7.6735400  17.6206110  64.5699820  11.6718740  15.0403480  65.5061700
  12.2748110  15.6123690  65.9810220  10.9311730  15.6042920  65.2835600
  14.8153340  15.4425040  60.7801980  15.0103970  16.3408490  61.0469410
  14.0283210  15.2112120  61.2734930   3.0005100  16.7885810  59.8178290
   3.5297860  16.0015610  59.6886240   3.6333420  17.4677000  60.0513820
   5.1942940  16.5260950  62.8723680   4.5645680  15.8248260  63.0393810
   4.6548080  17.2865080  62.6556840   8.1334890  33.1400180  75.5434290
   9.0602200  32.9044450  75.5870250   8.1185320  33.9672180  75.0620320
  16.3679950  32.6825750  62.5408540  16.5432140  31.9963490  61.8969460
  15.6701520  33.2072800  62.1485210   5.3198500  15.8044930  75.3076170
   5.0382770  16.3078530  74.5436990   5.7018200  15.0066680  74.9418300
   4.2107600  33.0720590  60.0943850   4.9426420  32.7879870  59.5467740
   4.4701270  32.8333870  60.9843230   3.3722390  29.1885320  60.0990180
   2.7431270  29.6570420  60.6476010   3.4870220  28.3434540  60.5336370
  11.9213960  15.2198510  75.8856640  11.8079410  15.5393120  76.7808160
  12.7383700  15.6211020  75.5893920  14.7012450  32.3670040  75.3675330
  15.4937770  31.8719270  75.1601290  14.9945600  33.0460180  75.9750940
  10.8272110  23.2390980  46.2491380  10.7466160  22.3245590  45.9783090
  10.4136530  23.7358050  45.5431090   8.9590150  25.0170000  48.1300650
   8.1832250  24.5370440  48.4199220   9.6103080  24.3375650  47.9556810
   2.9755980  25.3289810  49.0076410   2.1440860  25.0738520  49.4072920
   3.5836960  25.4000580  49.7434330  12.9797580  29.4230190  46.9099780
  12.5179110  28.6517430  47.2386950  13.7923130  29.4496260  47.4152230
   2.9557240  29.3629900  49.2034430   3.2585280  28.4727640  49.0244650
   3.7000830  29.9200120  48.9756680   9.2060890  31.7088200  46.5303770
   8.5872330  32.1645700  45.9598210  10.0612670  31.8639660  46.1293470
   8.3999140  27.6927190  48.1370810   8.3307420  26.7517130  47.9759940
   9.1619000  27.7828600  48.7093380   9.4304310  20.4997570  48.3639740
   9.8069130  19.6269450  48.2513410   9.3323820  20.8356270  47.4730180
   3.5609320  18.8723200  43.8257180   3.6676070  19.7726930  44.1325940
   2.6501680  18.8241170  43.5351830  13.2128430  17.9948010  45.2968080
  14.0338050  17.5044580  45.3393560  13.2462510  18.5845670  46.0499920
   5.4017050  21.8409570  48.1582360   5.9095270  22.3390540  48.7987380
   5.9330290  21.0644770  47.9821720  17.5027980  20.0114760  51.8611710
  16.7980150  20.3996470  51.3426820  17.7685900  20.7065050  52.4632640
   3.6853150  16.4808130  52.4245780   3.6871590  16.9980520  51.6191680
   2.8557460  16.0038310  52.4015710  10.0724240  26.5927440  43.9235680
   9.4541510  27.0576890  43.3598400  10.5847490  27.2854920  44.3405190
   4.9356000  26.1203310  50.6019280   4.6025380  26.7472230  51.2440350
   5.1122680  26.6465190  49.8220950  13.4489910  19.9348390  48.0695620
  12.7445480  20.2233280  48.6498730  13.8102070  20.7448500  47.7095180
   3.3668480  18.1918090  50.4316230   3.7085290  19.0360140  50.1370100
   2.4284290  18.3401830  50.5481570   4.1475100  28.0884110  52.4168460
   4.7649100  28.7635190  52.1352910   3.2868220  28.4972090  52.3255960
  15.0652690  29.5523520  50.3323100  14.3816210  30.2222630  50.3239770
  15.6046980  29.7504170  49.5667960  16.5176830  19.3803180  48.4604830
  15.5701740  19.4142160  48.5920260  16.8426820  20.1942130  48.8454190
   7.0496370  15.6800360  46.7560820   7.3571350  15.1247250  46.0396320
   6.1197070  15.8144820  46.5733810  12.6011430  31.3967650  49.0468280
  12.6138590  30.9929940  48.1790540  12.0486650  32.1714940  48.9429710
  13.8956850  28.1183870  44.1358450  13.7853180  27.1758200  44.2607870
  13.8925100  28.4799510  45.0221210  11.9996870  26.2997490  50.3750890
  12.4165660  26.0857600  49.5404350  12.7236690  26.5570280  50.9459510
   9.4377130  23.7449190  43.4920940   8.5106410  23.6786570  43.7209410
   9.5901950  24.6829320  43.3776180   9.4246210  20.0166190  40.4888100
   8.4849880  20.1780150  40.5740560   9.7429470  20.7351870  39.9424090
  15.9458970  24.6984710  50.4667130  15.1177600  24.7677800  49.9917260
  16.5409450  25.2839020  49.9982960  13.4674420  25.3069490  43.9956190
  12.8486840  24.9689040  43.3482490  13.4498870  24.6629250  44.7035380
  12.9100980  21.4854030  51.4122000  12.4972160  22.3107740  51.6661990
  12.1776930  20.8999070  51.2198360   5.0433770  24.2713930  46.2740670
   4.6390770  23.5591180  45.7786570   5.1296890  23.9267170  47.1628710
   5.5115470  27.9581490  48.4379880   5.2143760  27.3526960  47.7587660
   6.4615290  27.9958800  48.3269240   3.7562390  21.0457140  50.0539710
   4.3076980  21.1552480  49.2792960   4.2705900  21.4194740  50.7694940
  13.6001080  31.5313360  52.1002980  13.1231640  32.3385550  51.9075590
  12.9162870  30.8791690  52.2529190   4.6033900  27.6963180  55.0887680
   3.7062430  27.9203150  55.3361080   4.6286770  27.8198120  54.1399080
  11.6439120  24.5456300  41.0028940  12.0832400  23.7078730  40.8566760
  12.3567540  25.1785700  41.0893080   3.4305120  24.5676500  53.6645050
   3.2912890  25.4399300  54.0332450   2.5486480  24.2249310  53.5192990
   9.7534500  29.4852370  44.9710180  10.1930410  30.2276700  44.5565570
   9.6921390  29.7278940  45.8949140   5.2285470  30.5098200  55.8730200
   5.2000900  30.9141150  55.0058630   5.0650440  29.5808560  55.7101800
  15.2256260  15.7999110  39.3169980  14.9128920  15.8925940  40.2169050
  15.9868730  16.3780140  39.2667410  17.1800290  31.2925300  57.1694370
  17.6560010  31.7708190  57.8483450  17.8007450  31.2242790  56.4439870
  16.5833540  28.4838150  54.3294380  16.7096600  28.2450030  53.4111560
  16.6254920  27.6522690  54.8016460  10.4450280  32.1866150  52.8989190
  10.9594950  32.0974160  53.7011620   9.6019360  32.5325850  53.1917100
  12.4204680  32.4721490  42.3273190  12.2605820  32.1824430  43.2255020
  12.2551390  31.6961620  41.7918420   4.8993060  32.2520020  44.1044810
   4.7235540  31.3355560  43.8912610   4.0448800  32.6107310  44.3442610
  12.1230810  29.9809050  40.8871190  11.4295970  29.9786340  40.2273470
  12.8653670  29.5568370  40.4565360  11.6880740  31.6071760  44.9619680
  12.1437690  30.8261140  45.2758300  12.0273260  32.3178580  45.5060860
  16.4357550  20.5370610  55.2944120  15.8201820  21.0450280  54.7659580
  16.1153970  19.6368940  55.2370060   4.2102060  16.5093980  47.1570990
   3.7670210  17.2903520  46.8255510   4.7687050  16.8323870  47.8641930
   8.4971870  19.3762500  52.7606310   8.0351240  19.5845520  53.5726250
   8.0949980  18.5621850  52.4576980  13.4976380  20.5971450  53.8902970
  12.6469970  20.2977200  54.2112040  13.3378170  20.8413460  52.9786790
  10.5926090  22.0973200  55.9901760  10.9179500  21.2636950  55.6503990
  11.3806420  22.6201720  56.1380090   7.3260880  16.1304680  42.0376820
   6.7015060  16.1264550  42.7630130   7.2391000  15.2635640  41.6412790
   6.2477960  17.0541310  49.0160590   6.5450290  17.9604140  48.9352610
   6.7963520  16.5660090  48.4020160   4.0016280  21.6327550  44.8852240
   3.7757200  21.4164720  45.7898860   3.2208810  22.0656010  44.5398210
  11.2314040  21.6390920  43.4842890  10.6322930  22.3626720  43.3006510
  11.7793650  21.5767700  42.7019340   6.4415490  22.5313130  55.5512510
   6.3459090  21.5907860  55.4012910   7.2847470  22.7528200  55.1560580
   9.8378910  20.2754460  45.5146170  10.2308480  20.5926660  44.7014860
  10.1995760  19.3966340  45.6290690   8.1471080  19.0261770  56.7743030
   7.4569400  18.8333970  57.4089120   8.8903380  19.3096410  57.3067330
  10.4234050  22.8660210  49.6096950   9.6915170  23.3747020  49.9587050
  10.0258390  22.0490190  49.3085730   6.8611440  19.5414410  48.0149440
   6.8647500  19.1004360  47.1653980   7.7562560  19.8631740  48.1221260
   2.7113820  19.4240900  46.9743650   2.3713870  19.9016130  47.7310700
   1.9491140  18.9706020  46.6144750   6.9231590  20.5426490  41.0056200
   7.0444410  20.5012970  41.9542020   6.5380100  21.4050640  40.8502930
  10.8859960  18.3193890  49.0219890  10.9032700  18.7702540  49.8661740
  10.6375540  17.4199530  49.2353330   5.9353090  22.8527630  40.4039500
   5.3669990  22.4045880  39.7775410   6.6442090  23.2120410  39.8704650
  14.3130710  15.7326070  54.8606270  14.6376480  15.0015730  55.3864250
  14.3487220  15.4139710  53.9587260   7.1619410  23.6016190  49.7614850
   7.5289540  23.1274760  50.5076190   6.9724470  24.4757760  50.1023190
   4.9518780  22.6424830  52.0799060   4.6475850  23.5216810  52.3049420
   5.9065240  22.7024620  52.1156500   3.4800570  26.8485820  42.6765910
   2.7062830  26.3083440  42.5164630   4.2095200  26.3292430  42.3383670
  14.2388550  25.8451180  48.4692300  14.9587670  26.3406470  48.0788410
  14.0370370  25.1669070  47.8246170   9.6998490  17.2389140  42.6121690
   8.8863100  16.7402310  42.5367000   9.5060440  18.0787390  42.1958040
   9.6207350  25.9160240  54.3561300   9.5544660  24.9955910  54.1018890
   8.9912490  26.0135680  55.0705940  12.4146880  21.6108790  40.9083850
  13.3026500  21.9226020  40.7335190  12.3851970  20.7381040  40.5164430
   3.5237970  26.5166200  46.3144720   4.0416640  25.7134460  46.2601610
   3.0721990  26.4545340  47.1561550   8.4107470  27.7832480  41.5872020
   8.7523170  28.5274710  41.0915340   7.5820180  28.0963600  41.9496850
   4.2095630  23.9411810  56.1109970   3.9095770  24.0868990  55.2137790
   4.9806870  23.3817100  56.0183360   9.5524080  28.7380810  54.1065100
   9.5668620  27.8061770  53.8884010   8.8449180  28.8240570  54.7454870
  14.6861150  22.9220630  40.3763710  14.6024870  23.3534850  39.5260150
  15.4055340  23.3818980  40.8090530  15.7635290  25.3788150  53.4533680
  15.0383480  25.9716930  53.2563070  16.2910750  25.3711690  52.6547050
  15.7148400  29.7762890  43.1045840  15.0724560  29.1218510  43.3789560
  15.3279060  30.1817980  42.3286510  11.2934880  27.1048320  46.9517530
  11.6458700  26.5076450  46.2918900  10.4097210  26.7792550  47.1225780
   7.3798160  27.8646010  44.3587940   8.0669290  28.4115220  44.7395530
   6.5930580  28.4086740  44.3937550   6.6825370  24.8692040  43.9713300
   7.1388150  25.6797290  44.1973490   6.3313580  24.5515180  44.8031790
   8.9857980  30.3798380  51.2005600   9.6300200  30.5857760  51.8779020
   9.3487420  29.6186780  50.7476450   2.5837150  15.2129690  44.4435820
   2.4551780  15.2047590  45.3920740   1.7599170  15.5512780  44.0926830
  10.2590060  28.3830730  49.9183050  10.9012290  27.6823890  50.0315220
  10.7839410  29.1629170  49.7379940  14.1045780  28.6679350  39.6422190
  13.8783360  27.9509790  40.2346830  13.7141980  28.4191790  38.8043940
  12.0327680  29.1825630  53.1219110  12.3683920  29.7692320  53.7997030
  11.1128020  29.0518340  53.3516900  13.6862030  26.5851290  41.3036350
  13.3983730  27.0463980  42.0914230  14.4814200  26.1249060  41.5720570
   7.8616260  29.2316960  56.2907170   7.5413130  28.5126200  56.8352860
   7.1874620  29.9072030  56.3643230   5.9030430  30.0777410  41.2340320
   5.8940530  30.8107100  40.6184830   4.9828790  29.8308990  41.3267280
  11.0769860  19.4643120  51.6543970  11.4450680  18.6438330  51.9823540
  10.2168060  19.5245010  52.0699620  14.4431890  18.4200060  42.4631530
  13.8145050  18.5245730  41.7489760  13.9483810  18.6396840  43.2525410
   8.8890030  30.1405650  39.8965510   8.9902010  29.9369640  38.9667490
   7.9891770  29.8863930  40.1013290   6.4115920  20.6986010  43.8789410
   5.7032070  21.1672350  44.3203020   6.6960400  20.0408020  44.5134600
   8.0371850  22.1182710  51.8781940   8.5357100  22.5928530  52.5433790
   8.1794800  21.1946230  52.0851970  10.4431350  17.4236670  45.3185200
  10.3199130  17.4422800  44.3694710  11.3915910  17.4715610  45.4383600
   7.5308140  32.6591970  44.5913180   7.7849640  32.6213360  43.6692550
   6.5820620  32.5325300  44.5841430   4.6150940  19.0071090  41.2540120
   5.4641470  19.4441240  41.1880310   4.2482210  19.3191350  42.0812180
  15.2438710  18.3350670  52.7210330  14.7412310  19.0756070  53.0604140
  16.0595370  18.7234670  52.4047120  13.5360720  23.5783850  46.1671690
  12.5950860  23.5934080  46.3419380  13.8504790  22.7919810  46.6131990
   3.5142360  25.2603450  39.7275650   4.2805630  25.1484810  40.2901080
   3.5917050  24.5641420  39.0752420   2.2089120  22.6928520  40.4108540
   2.2892710  21.7456030  40.5225940   3.1008870  23.0235400  40.5169200
  15.5386300  30.7492700  47.8425950  15.6633720  31.5723870  48.3149760
  16.4051860  30.5383430  47.4950100   3.0103830  32.8423910  47.5143080
   3.7466310  32.2939370  47.7851650   3.3944750  33.7079920  47.3749070
   2.0162110  32.0269980  56.7028660   2.8174840  32.3482030  57.1164060
   1.5013930  31.6665560  57.4248570   6.1206140  32.0154220  39.3368650
   6.9134750  32.3043050  38.8850440   5.6010490  31.5846390  38.6581130
  10.8526740  28.1349850  56.6504070  10.2464900  28.1581450  55.9099820
  10.5480850  27.4032890  57.1871320  12.2827110  31.8630140  55.2613480
  13.2348860  31.7788160  55.2113720  12.1355330  32.5271850  55.9347270
  15.1736310  31.2424350  40.7605390  14.8877820  30.8289490  39.9459570
  14.9755860  32.1712060  40.6405910   6.6383540  27.2357630  39.2011000
   6.5334180  26.6209980  39.9272380   6.4707760  26.7123520  38.4174010
   6.7897860  25.9214430  55.1800230   6.0243530  26.4899430  55.0954900
   6.9713820  25.6290640  54.2868460   9.8786270  26.2977660  39.8052990
   9.3296370  26.7446960  40.4495730  10.5005530  25.7926910  40.3290660
  13.9321210  27.6519760  55.7375250  14.6730680  27.9895520  55.2342710
  13.1693890  27.8211820  55.1845020   1.7683000  22.6573030  56.5414780
   1.8088340  22.3586900  57.4500010   2.6228500  23.0580640  56.3822300
   5.5461390  25.2568580  41.7018290   5.9677810  25.0908450  42.5449680
   5.6712230  24.4468810  41.2073430   3.7088810  21.2365130  54.5089270
   3.1785270  20.7456080  53.8812610   4.3776880  21.6649330  53.9747200
   8.0589030  24.2806190  38.9495390   8.5794690  23.5655210  38.5836540
   8.7057430  24.9192060  39.2495900  12.6066870  25.7034590  54.2730460
  13.0207890  25.8579670  55.1220880  11.6717870  25.8289810  54.4356240
  13.0789040  23.0430750  56.2769610  13.6609810  22.2883070  56.1890090
  13.2550810  23.5738190  55.5001090   4.1961110  18.2027500  54.5886560
   4.1017980  17.5848250  53.8637430   3.6158500  18.9293790  54.3616470
   6.9622550  16.7600740  51.6213950   6.5139850  16.7825000  50.7759500
   6.3287750  16.3619760  52.2184250   7.3682100  25.6555070  52.2426390
   7.7870210  26.4987800  52.0702630   6.4490730  25.7927110  52.0133170
   9.7046000  23.3871250  53.6264230   9.8242210  22.7912390  54.3659070
  10.5640000  23.4240940  53.2065530  12.0433900  23.9408440  52.2026740
  11.5169120  24.4651060  51.5991880  12.3865240  24.5735830  52.8336470
   4.4420290  21.3301810  38.6476450   4.2409350  20.4669170  39.0089790
   4.2712340  21.2435170  37.7098050   5.2189520  31.9608080  53.3584120
   4.6810610  32.6854140  53.0392820   5.4723480  31.4838420  52.5681460
   6.4714770  19.9292600  54.8840050   7.0614460  19.6208450  55.5717870
   5.6535010  19.4572350  55.0399950  11.2908200  19.5458410  55.1173070
  10.6023720  18.8839950  55.0523060  12.0114220  19.0996680  55.5621530
  11.9208600  16.1410040  41.1763330  12.2010890  15.2977940  41.5322750
  11.1474330  16.3733150  41.6902080   3.2403090  18.4302430  38.6354330
   3.5428990  18.4369860  37.7273480   3.9797680  18.0800290  39.1321990
   8.0751730  33.1959290  53.6170770   8.0010430  34.0994430  53.9243140
   7.1730570  32.8771190  53.5892840   6.4588020  17.3737050  39.6210530
   6.1110020  16.6961040  39.0412980   6.6600790  16.9126560  40.4353920
   8.6237060  32.3617800  41.2397130   9.5187850  32.7002770  41.2615890
   8.6554690  31.6397210  40.6121410   2.2633220  27.7344850  39.4684130
   2.7008090  28.2774520  40.1241710   2.7480950  26.9091800  39.4780470
   4.0740940  28.8542890  44.5806360   3.7736480  28.7307860  45.4810270
   3.9678430  27.9951480  44.1722090  15.6031410  30.8921470  53.9463330
  15.0033400  30.9514030  53.2027250  15.7325310  29.9526450  54.0760180
  16.8432860  28.6339290  39.2833040  16.0125820  28.7015940  39.7540270
  17.0204690  29.5243410  38.9799900  16.2989320  25.3786770  41.7867240
  17.0608230  25.9483420  41.8926930  16.3143690  24.8113970  42.5575550
  17.3049290  26.2336870  46.6309170  17.6758120  25.4504190  46.2245140
  17.9451220  26.9225970  46.4526470  14.2883050  27.6173450  52.0439490
  13.4742890  28.0470610  52.3065280  14.6957250  28.2291860  51.4308540
  16.3508490  25.6721140  38.9439760  16.6257330  26.5800020  38.8158980
  16.1619230  25.6083670  39.8801750  12.7484100  18.6965990  40.2393390
  13.1668980  18.5096970  39.3990050  12.4420160  17.8445040  40.5496320
  16.2473830  23.6090130  43.9369190  15.8717430  22.8418060  43.5050480
  15.5176950  23.9912830  44.4244120  15.6373450  22.7561650  53.5708710
  15.4059540  22.5274400  52.6706660  15.8978000  23.6761200  53.5253600
  14.0761520  17.9818080  56.3488410  14.9531700  17.9901480  56.7322410
  14.0882360  17.2448920  55.7380760  15.5224790  21.8347620  47.2376430
  16.0462270  21.3410270  46.6066600  16.1084210  21.9697980  47.9824000
  15.7014510  21.9187490  50.7595980  14.7517220  21.8851030  50.8740970
  15.8827520  22.8287600  50.5245750  15.0124760  21.0920970  43.1768840
  15.5083880  20.8591840  43.9617720  14.8140830  20.2532810  42.7606480
  16.4411920  19.7281920  45.7106520  16.3311200  19.5737960  46.6488790
  17.2019510  19.2002860  45.4681930  14.7877640  15.6676050  52.1689520
  15.4249860  16.2810190  52.5348710  14.9352530  15.7036710  51.2238750
  17.3302190  17.5589840  38.9512660  18.2551500  17.4271020  38.7430950
  17.3077980  17.6382660  39.9049110  17.4040680  18.3300500  41.5769370
  16.6092180  18.2645620  42.1062280  17.6083960  19.2651140  41.5654720
   2.2521670  28.8009960  55.7198390   2.2091300  28.4302870  56.6012850
   2.3832680  29.7387530  55.8600210   5.9527700  30.3569550  51.3208110
   5.7119060  30.6244110  50.4338630   6.8930340  30.5275280  51.3758970
   8.1582120  16.8202240  55.0764620   8.0971010  17.4124070  55.8260030
   9.0982500  16.7128200  54.9314880  10.7956680  16.4772300  54.7156910
  11.4097090  16.7951590  54.0537990  11.3406240  15.9920890  55.3352770
  17.2131860  32.3763930  52.1218750  16.7190140  32.7732800  51.4045880
  16.6045150  31.7513140  52.5156030   2.0909700  31.7472210  52.8396170
   1.4970020  31.6156910  53.5786210   2.0833540  30.9110350  52.3738270
  11.5364720  15.0404440  51.0426200  10.6624560  15.3739550  50.8399130
  11.4275470  14.5677620  51.8678070  12.4436700  17.2475310  52.4267920
  12.1150060  16.4327070  52.0469650  13.3919000  17.2045120  52.3033610
  14.8971310  33.0187350  49.4005490  14.4374280  33.7703160  49.0263510
  14.2683770  32.2993820  49.3420290   5.3267030  31.3275590  48.5753620
   5.8432050  30.7162950  48.0501880   5.9764410  31.8304370  49.0664630
   8.0662530  32.2184080  49.4022600   8.3540340  31.9638380  48.5255610
   8.5785750  31.6661440  49.9928170   9.2839540  15.9574280  49.9819110
   8.5011330  16.4319780  50.2615870   8.9902470  15.0529110  49.8732290
  13.8360610  16.6597380  48.0268200  14.2768700  16.6042480  47.1789800
  13.5668200  17.5755390  48.0978380  15.6999180  16.2912620  46.0377020
  15.6387580  15.3473840  45.8908040  16.4791210  16.3992710  46.5830480
   7.1693760  18.3761030  45.4935140   6.3568270  18.0017920  45.1531020
   7.6735400  17.6206110  45.7956330  11.6718740  15.0403480  46.7318210
  12.2748110  15.6123690  47.2066730  10.9311730  15.6042920  46.5092110
  14.8153340  15.4425040  42.0058490  15.0103970  16.3408490  42.2725920
  14.0283210  15.2112120  42.4991440   3.0005100  16.7885810  41.0434800
   3.5297860  16.0015610  40.9142750   3.6333420  17.4677000  41.2770330
   5.1942940  16.5260950  44.0980190   4.5645680  15.8248260  44.2650320
   4.6548080  17.2865080  43.8813350   8.1334890  33.1400180  56.7690800
   9.0602200  32.9044450  56.8126760   8.1185320  33.9672180  56.2876830
   5.3198500  15.8044930  56.5332680   5.0382770  16.3078530  55.7693500
   5.7018200  15.0066680  56.1674810   4.2107600  33.0720590  41.3200360
   4.9426420  32.7879870  40.7724250   4.4701270  32.8333870  42.2099740
   3.3722390  29.1885320  41.3246690   2.7431270  29.6570420  41.8732520
   3.4870220  28.3434540  41.7592880  11.9213960  15.2198510  57.1113150
  11.8079410  15.5393120  58.0064670  12.7383700  15.6211020  56.8150430
  14.7012450  32.3670040  56.5931840  15.4937770  31.8719270  56.3857800
  14.9945600  33.0460180  57.2007450  10.8272110  23.2390980  27.4747890
  10.7466160  22.3245590  27.2039600  10.4136530  23.7358050  26.7687600
   8.9590150  25.0170000  29.3557160   8.1832250  24.5370440  29.6455730
   9.6103080  24.3375650  29.1813320   2.9755980  25.3289810  30.2332920
   2.1440860  25.0738520  30.6329430   3.5836960  25.4000580  30.9690840
  12.9797580  29.4230190  28.1356290  12.5179110  28.6517430  28.4643460
  13.7923130  29.4496260  28.6408740   2.9557240  29.3629900  30.4290940
   3.2585280  28.4727640  30.2501160   3.7000830  29.9200120  30.2013190
   9.2060890  31.7088200  27.7560280   8.5872330  32.1645700  27.1854720
  10.0612670  31.8639660  27.3549980   8.3999140  27.6927190  29.3627320
   8.3307420  26.7517130  29.2016450   9.1619000  27.7828600  29.9349890
   9.4304310  20.4997570  29.5896250   9.8069130  19.6269450  29.4769920
   9.3323820  20.8356270  28.6986690   3.5609320  18.8723200  25.0513690
   3.6676070  19.7726930  25.3582450   2.6501680  18.8241170  24.7608340
  13.2128430  17.9948010  26.5224590  14.0338050  17.5044580  26.5650070
  13.2462510  18.5845670  27.2756430   5.4017050  21.8409570  29.3838870
   5.9095270  22.3390540  30.0243890   5.9330290  21.0644770  29.2078230
  17.5027980  20.0114760  33.0868220  16.7980150  20.3996470  32.5683330
  17.7685900  20.7065050  33.6889150   3.6853150  16.4808130  33.6502290
   3.6871590  16.9980520  32.8448190   2.8557460  16.0038310  33.6272220
  10.0724240  26.5927440  25.1492190   9.4541510  27.0576890  24.5854910
  10.5847490  27.2854920  25.5661700   4.9356000  26.1203310  31.8275790
   4.6025380  26.7472230  32.4696860   5.1122680  26.6465190  31.0477460
  13.4489910  19.9348390  29.2952130  12.7445480  20.2233280  29.8755240
  13.8102070  20.7448500  28.9351690   3.3668480  18.1918090  31.6572740
   3.7085290  19.0360140  31.3626610   2.4284290  18.3401830  31.7738080
   4.1475100  28.0884110  33.6424970   4.7649100  28.7635190  33.3609420
   3.2868220  28.4972090  33.5512470  15.0652690  29.5523520  31.5579610
  14.3816210  30.2222630  31.5496280  15.6046980  29.7504170  30.7924470
  16.5176830  19.3803180  29.6861340  15.5701740  19.4142160  29.8176770
  16.8426820  20.1942130  30.0710700   7.0496370  15.6800360  27.9817330
   7.3571350  15.1247250  27.2652830   6.1197070  15.8144820  27.7990320
  12.6011430  31.3967650  30.2724790  12.6138590  30.9929940  29.4047050
  12.0486650  32.1714940  30.1686220  13.8956850  28.1183870  25.3614960
  13.7853180  27.1758200  25.4864380  13.8925100  28.4799510  26.2477720
  11.9996870  26.2997490  31.6007400  12.4165660  26.0857600  30.7660860
  12.7236690  26.5570280  32.1716020   9.4377130  23.7449190  24.7177450
   8.5106410  23.6786570  24.9465920   9.5901950  24.6829320  24.6032690
   9.4246210  20.0166190  21.7144610   8.4849880  20.1780150  21.7997070
   9.7429470  20.7351870  21.1680600  15.9458970  24.6984710  31.6923640
  15.1177600  24.7677800  31.2173770  16.5409450  25.2839020  31.2239470
  13.4674420  25.3069490  25.2212700  12.8486840  24.9689040  24.5739000
  13.4498870  24.6629250  25.9291890  12.9100980  21.4854030  32.6378510
  12.4972160  22.3107740  32.8918500  12.1776930  20.8999070  32.4454870
   5.0433770  24.2713930  27.4997180   4.6390770  23.5591180  27.0043080
   5.1296890  23.9267170  28.3885220   5.5115470  27.9581490  29.6636390
   5.2143760  27.3526960  28.9844170   6.4615290  27.9958800  29.5525750
   3.7562390  21.0457140  31.2796220   4.3076980  21.1552480  30.5049470
   4.2705900  21.4194740  31.9951450  13.6001080  31.5313360  33.3259490
  13.1231640  32.3385550  33.1332100  12.9162870  30.8791690  33.4785700
   4.6033900  27.6963180  36.3144190   3.7062430  27.9203150  36.5617590
   4.6286770  27.8198120  35.3655590  11.6439120  24.5456300  22.2285450
  12.0832400  23.7078730  22.0823270  12.3567540  25.1785700  22.3149590
   3.4305120  24.5676500  34.8901560   3.2912890  25.4399300  35.2588960
   2.5486480  24.2249310  34.7449500   9.7534500  29.4852370  26.1966690
  10.1930410  30.2276700  25.7822080   9.6921390  29.7278940  27.1205650
   5.2285470  30.5098200  37.0986710   5.2000900  30.9141150  36.2315140
   5.0650440  29.5808560  36.9358310  15.2256260  15.7999110  20.5426490
  14.9128920  15.8925940  21.4425560  15.9868730  16.3780140  20.4923920
  17.1800290  31.2925300  38.3950880  17.6560010  31.7708190  39.0739960
  17.8007450  31.2242790  37.6696380  16.5833540  28.4838150  35.5550890
  16.7096600  28.2450030  34.6368070  16.6254920  27.6522690  36.0272970
  10.4450280  32.1866150  34.1245700  10.9594950  32.0974160  34.9268130
   9.6019360  32.5325850  34.4173610  12.4204680  32.4721490  23.5529700
  12.2605820  32.1824430  24.4511530  12.2551390  31.6961620  23.0174930
   4.8993060  32.2520020  25.3301320   4.7235540  31.3355560  25.1169120
   4.0448800  32.6107310  25.5699120  12.1230810  29.9809050  22.1127700
  11.4295970  29.9786340  21.4529980  12.8653670  29.5568370  21.6821870
  11.6880740  31.6071760  26.1876190  12.1437690  30.8261140  26.5014810
  12.0273260  32.3178580  26.7317370  16.4357550  20.5370610  36.5200630
  15.8201820  21.0450280  35.9916090  16.1153970  19.6368940  36.4626570
   4.2102060  16.5093980  28.3827500   3.7670210  17.2903520  28.0512020
   4.7687050  16.8323870  29.0898440   8.4971870  19.3762500  33.9862820
   8.0351240  19.5845520  34.7982760   8.0949980  18.5621850  33.6833490
  13.4976380  20.5971450  35.1159480  12.6469970  20.2977200  35.4368550
  13.3378170  20.8413460  34.2043300  10.5926090  22.0973200  37.2158270
  10.9179500  21.2636950  36.8760500  11.3806420  22.6201720  37.3636600
   7.3260880  16.1304680  23.2633330   6.7015060  16.1264550  23.9886640
   7.2391000  15.2635640  22.8669300   6.2477960  17.0541310  30.2417100
   6.5450290  17.9604140  30.1609120   6.7963520  16.5660090  29.6276670
   4.0016280  21.6327550  26.1108750   3.7757200  21.4164720  27.0155370
   3.2208810  22.0656010  25.7654720  11.2314040  21.6390920  24.7099400
  10.6322930  22.3626720  24.5263020  11.7793650  21.5767700  23.9275850
   6.4415490  22.5313130  36.7769020   6.3459090  21.5907860  36.6269420
   7.2847470  22.7528200  36.3817090   9.8378910  20.2754460  26.7402680
  10.2308480  20.5926660  25.9271370  10.1995760  19.3966340  26.8547200
   8.1471080  19.0261770  37.9999540   7.4569400  18.8333970  38.6345630
   8.8903380  19.3096410  38.5323840  10.4234050  22.8660210  30.8353460
   9.6915170  23.3747020  31.1843560  10.0258390  22.0490190  30.5342240
   6.8611440  19.5414410  29.2405950   6.8647500  19.1004360  28.3910490
   7.7562560  19.8631740  29.3477770   2.7113820  19.4240900  28.2000160
   2.3713870  19.9016130  28.9567210   1.9491140  18.9706020  27.8401260
   6.9231590  20.5426490  22.2312710   7.0444410  20.5012970  23.1798530
   6.5380100  21.4050640  22.0759440  10.8859960  18.3193890  30.2476400
  10.9032700  18.7702540  31.0918250  10.6375540  17.4199530  30.4609840
   5.9353090  22.8527630  21.6296010   5.3669990  22.4045880  21.0031920
   6.6442090  23.2120410  21.0961160  14.3130710  15.7326070  36.0862780
  14.6376480  15.0015730  36.6120760  14.3487220  15.4139710  35.1843770
   7.1619410  23.6016190  30.9871360   7.5289540  23.1274760  31.7332700
   6.9724470  24.4757760  31.3279700   4.9518780  22.6424830  33.3055570
   4.6475850  23.5216810  33.5305930   5.9065240  22.7024620  33.3413010
   3.4800570  26.8485820  23.9022420   2.7062830  26.3083440  23.7421140
   4.2095200  26.3292430  23.5640180  14.2388550  25.8451180  29.6948810
  14.9587670  26.3406470  29.3044920  14.0370370  25.1669070  29.0502680
   9.6998490  17.2389140  23.8378200   8.8863100  16.7402310  23.7623510
   9.5060440  18.0787390  23.4214550   9.6207350  25.9160240  35.5817810
   9.5544660  24.9955910  35.3275400   8.9912490  26.0135680  36.2962450
  12.4146880  21.6108790  22.1340360  13.3026500  21.9226020  21.9591700
  12.3851970  20.7381040  21.7420940   3.5237970  26.5166200  27.5401230
   4.0416640  25.7134460  27.4858120   3.0721990  26.4545340  28.3818060
   8.4107470  27.7832480  22.8128530   8.7523170  28.5274710  22.3171850
   7.5820180  28.0963600  23.1753360   4.2095630  23.9411810  37.3366480
   3.9095770  24.0868990  36.4394300   4.9806870  23.3817100  37.2439870
   9.5524080  28.7380810  35.3321610   9.5668620  27.8061770  35.1140520
   8.8449180  28.8240570  35.9711380  14.6861150  22.9220630  21.6020220
  14.6024870  23.3534850  20.7516660  15.4055340  23.3818980  22.0347040
  15.7635290  25.3788150  34.6790190  15.0383480  25.9716930  34.4819580
  16.2910750  25.3711690  33.8803560  15.7148400  29.7762890  24.3302350
  15.0724560  29.1218510  24.6046070  15.3279060  30.1817980  23.5543020
  11.2934880  27.1048320  28.1774040  11.6458700  26.5076450  27.5175410
  10.4097210  26.7792550  28.3482290   7.3798160  27.8646010  25.5844450
   8.0669290  28.4115220  25.9652040   6.5930580  28.4086740  25.6194060
   6.6825370  24.8692040  25.1969810   7.1388150  25.6797290  25.4230000
   6.3313580  24.5515180  26.0288300   8.9857980  30.3798380  32.4262110
   9.6300200  30.5857760  33.1035530   9.3487420  29.6186780  31.9732960
   2.5837150  15.2129690  25.6692330   2.4551780  15.2047590  26.6177250
   1.7599170  15.5512780  25.3183340  10.2590060  28.3830730  31.1439560
  10.9012290  27.6823890  31.2571730  10.7839410  29.1629170  30.9636450
  14.1045780  28.6679350  20.8678700  13.8783360  27.9509790  21.4603340
  13.7141980  28.4191790  20.0300450  12.0327680  29.1825630  34.3475620
  12.3683920  29.7692320  35.0253540  11.1128020  29.0518340  34.5773410
  13.6862030  26.5851290  22.5292860  13.3983730  27.0463980  23.3170740
  14.4814200  26.1249060  22.7977080   7.8616260  29.2316960  37.5163680
   7.5413130  28.5126200  38.0609370   7.1874620  29.9072030  37.5899740
   5.9030430  30.0777410  22.4596830   5.8940530  30.8107100  21.8441340
   4.9828790  29.8308990  22.5523790  11.0769860  19.4643120  32.8800480
  11.4450680  18.6438330  33.2080050  10.2168060  19.5245010  33.2956130
  14.4431890  18.4200060  23.6888040  13.8145050  18.5245730  22.9746270
  13.9483810  18.6396840  24.4781920   8.8890030  30.1405650  21.1222020
   8.9902010  29.9369640  20.1924000   7.9891770  29.8863930  21.3269800
   6.4115920  20.6986010  25.1045920   5.7032070  21.1672350  25.5459530
   6.6960400  20.0408020  25.7391110   8.0371850  22.1182710  33.1038450
   8.5357100  22.5928530  33.7690300   8.1794800  21.1946230  33.3108480
  10.4431350  17.4236670  26.5441710  10.3199130  17.4422800  25.5951220
  11.3915910  17.4715610  26.6640110   7.5308140  32.6591970  25.8169690
   7.7849640  32.6213360  24.8949060   6.5820620  32.5325300  25.8097940
   4.6150940  19.0071090  22.4796630   5.4641470  19.4441240  22.4136820
   4.2482210  19.3191350  23.3068690  15.2438710  18.3350670  33.9466840
  14.7412310  19.0756070  34.2860650  16.0595370  18.7234670  33.6303630
  13.5360720  23.5783850  27.3928200  12.5950860  23.5934080  27.5675890
  13.8504790  22.7919810  27.8388500   3.5142360  25.2603450  20.9532160
   4.2805630  25.1484810  21.5157590   3.5917050  24.5641420  20.3008930
   2.2089120  22.6928520  21.6365050   2.2892710  21.7456030  21.7482450
   3.1008870  23.0235400  21.7425710  15.5386300  30.7492700  29.0682460
  15.6633720  31.5723870  29.5406270  16.4051860  30.5383430  28.7206610
   3.0103830  32.8423910  28.7399590   3.7466310  32.2939370  29.0108160
   3.3944750  33.7079920  28.6005580   2.0162110  32.0269980  37.9285170
   2.8174840  32.3482030  38.3420570   1.5013930  31.6665560  38.6505080
   6.1206140  32.0154220  20.5625160   6.9134750  32.3043050  20.1106950
   5.6010490  31.5846390  19.8837640  10.8526740  28.1349850  37.8760580
  10.2464900  28.1581450  37.1356330  10.5480850  27.4032890  38.4127830
  12.2827110  31.8630140  36.4869990  13.2348860  31.7788160  36.4370230
  12.1355330  32.5271850  37.1603780  15.1736310  31.2424350  21.9861900
  14.8877820  30.8289490  21.1716080  14.9755860  32.1712060  21.8662420
   6.6383540  27.2357630  20.4267510   6.5334180  26.6209980  21.1528890
   6.4707760  26.7123520  19.6430520   6.7897860  25.9214430  36.4056740
   6.0243530  26.4899430  36.3211410   6.9713820  25.6290640  35.5124970
   9.8786270  26.2977660  21.0309500   9.3296370  26.7446960  21.6752240
  10.5005530  25.7926910  21.5547170  13.9321210  27.6519760  36.9631760
  14.6730680  27.9895520  36.4599220  13.1693890  27.8211820  36.4101530
   1.7683000  22.6573030  37.7671290   1.8088340  22.3586900  38.6756520
   2.6228500  23.0580640  37.6078810   5.5461390  25.2568580  22.9274800
   5.9677810  25.0908450  23.7706190   5.6712230  24.4468810  22.4329940
   3.7088810  21.2365130  35.7345780   3.1785270  20.7456080  35.1069120
   4.3776880  21.6649330  35.2003710   8.0589030  24.2806190  20.1751900
   8.5794690  23.5655210  19.8093050   8.7057430  24.9192060  20.4752410
  12.6066870  25.7034590  35.4986970  13.0207890  25.8579670  36.3477390
  11.6717870  25.8289810  35.6612750  13.0789040  23.0430750  37.5026120
  13.6609810  22.2883070  37.4146600  13.2550810  23.5738190  36.7257600
   4.1961110  18.2027500  35.8143070   4.1017980  17.5848250  35.0893940
   3.6158500  18.9293790  35.5872980   6.9622550  16.7600740  32.8470460
   6.5139850  16.7825000  32.0016010   6.3287750  16.3619760  33.4440760
   7.3682100  25.6555070  33.4682900   7.7870210  26.4987800  33.2959140
   6.4490730  25.7927110  33.2389680   9.7046000  23.3871250  34.8520740
   9.8242210  22.7912390  35.5915580  10.5640000  23.4240940  34.4322040
  12.0433900  23.9408440  33.4283250  11.5169120  24.4651060  32.8248390
  12.3865240  24.5735830  34.0592980   4.4420290  21.3301810  19.8732960
   4.2409350  20.4669170  20.2346300   4.2712340  21.2435170  18.9354560
   5.2189520  31.9608080  34.5840630   4.6810610  32.6854140  34.2649330
   5.4723480  31.4838420  33.7937970   6.4714770  19.9292600  36.1096560
   7.0614460  19.6208450  36.7974380   5.6535010  19.4572350  36.2656460
  11.2908200  19.5458410  36.3429580  10.6023720  18.8839950  36.2779570
  12.0114220  19.0996680  36.7878040  11.9208600  16.1410040  22.4019840
  12.2010890  15.2977940  22.7579260  11.1474330  16.3733150  22.9158590
   3.2403090  18.4302430  19.8610840   3.5428990  18.4369860  18.9529990
   3.9797680  18.0800290  20.3578500   8.0751730  33.1959290  34.8427280
   8.0010430  34.0994430  35.1499650   7.1730570  32.8771190  34.8149350
   6.4588020  17.3737050  20.8467040   6.1110020  16.6961040  20.2669490
   6.6600790  16.9126560  21.6610430   8.6237060  32.3617800  22.4653640
   9.5187850  32.7002770  22.4872400   8.6554690  31.6397210  21.8377920
   2.2633220  27.7344850  20.6940640   2.7008090  28.2774520  21.3498220
   2.7480950  26.9091800  20.7036980   4.0740940  28.8542890  25.8062870
   3.7736480  28.7307860  26.7066780   3.9678430  27.9951480  25.3978600
  15.6031410  30.8921470  35.1719840  15.0033400  30.9514030  34.4283760
  15.7325310  29.9526450  35.3016690  16.8432860  28.6339290  20.5089550
  16.0125820  28.7015940  20.9796780  17.0204690  29.5243410  20.2056410
  16.2989320  25.3786770  23.0123750  17.0608230  25.9483420  23.1183440
  16.3143690  24.8113970  23.7832060  17.3049290  26.2336870  27.8565680
  17.6758120  25.4504190  27.4501650  17.9451220  26.9225970  27.6782980
  14.2883050  27.6173450  33.2696000  13.4742890  28.0470610  33.5321790
  14.6957250  28.2291860  32.6565050  16.3508490  25.6721140  20.1696270
  16.6257330  26.5800020  20.0415490  16.1619230  25.6083670  21.1058260
  12.7484100  18.6965990  21.4649900  13.1668980  18.5096970  20.6246560
  12.4420160  17.8445040  21.7752830  16.2473830  23.6090130  25.1625700
  15.8717430  22.8418060  24.7306990  15.5176950  23.9912830  25.6500630
  15.6373450  22.7561650  34.7965220  15.4059540  22.5274400  33.8963170
  15.8978000  23.6761200  34.7510110  14.0761520  17.9818080  37.5744920
  14.9531700  17.9901480  37.9578920  14.0882360  17.2448920  36.9637270
  15.5224790  21.8347620  28.4632940  16.0462270  21.3410270  27.8323110
  16.1084210  21.9697980  29.2080510  15.7014510  21.9187490  31.9852490
  14.7517220  21.8851030  32.0997480  15.8827520  22.8287600  31.7502260
  15.0124760  21.0920970  24.4025350  15.5083880  20.8591840  25.1874230
  14.8140830  20.2532810  23.9862990  16.4411920  19.7281920  26.9363030
  16.3311200  19.5737960  27.8745300  17.2019510  19.2002860  26.6938440
  14.7877640  15.6676050  33.3946030  15.4249860  16.2810190  33.7605220
  14.9352530  15.7036710  32.4495260  17.3302190  17.5589840  20.1769170
  18.2551500  17.4271020  19.9687460  17.3077980  17.6382660  21.1305620
  17.4040680  18.3300500  22.8025880  16.6092180  18.2645620  23.3318790
  17.6083960  19.2651140  22.7911230  14.3459100  32.3692050  26.7964270
  14.9418170  32.0476620  26.1198690  14.6037250  31.8963870  27.5877540
   2.2521670  28.8009960  36.9454900   2.2091300  28.4302870  37.8269360
   2.3832680  29.7387530  37.0856720   5.9527700  30.3569550  32.5464620
   5.7119060  30.6244110  31.6595140   6.8930340  30.5275280  32.6015480
   8.1582120  16.8202240  36.3021130   8.0971010  17.4124070  37.0516540
   9.0982500  16.7128200  36.1571390  10.7956680  16.4772300  35.9413420
  11.4097090  16.7951590  35.2794500  11.3406240  15.9920890  36.5609280
  17.2131860  32.3763930  33.3475260  16.7190140  32.7732800  32.6302390
  16.6045150  31.7513140  33.7412540   2.0909700  31.7472210  34.0652680
   1.4970020  31.6156910  34.8042720   2.0833540  30.9110350  33.5994780
  11.5364720  15.0404440  32.2682710  10.6624560  15.3739550  32.0655640
  11.4275470  14.5677620  33.0934580  12.4436700  17.2475310  33.6524430
  12.1150060  16.4327070  33.2726160  13.3919000  17.2045120  33.5290120
  14.8971310  33.0187350  30.6262000  14.4374280  33.7703160  30.2520020
  14.2683770  32.2993820  30.5676800   5.3267030  31.3275590  29.8010130
   5.8432050  30.7162950  29.2758390   5.9764410  31.8304370  30.2921140
   8.0662530  32.2184080  30.6279110   8.3540340  31.9638380  29.7512120
   8.5785750  31.6661440  31.2184680   9.2839540  15.9574280  31.2075620
   8.5011330  16.4319780  31.4872380   8.9902470  15.0529110  31.0988800
  13.8360610  16.6597380  29.2524710  14.2768700  16.6042480  28.4046310
  13.5668200  17.5755390  29.3234890  15.6999180  16.2912620  27.2633530
  15.6387580  15.3473840  27.1164550  16.4791210  16.3992710  27.8086990
   7.1693760  18.3761030  26.7191650   6.3568270  18.0017920  26.3787530
   7.6735400  17.6206110  27.0212840  11.6718740  15.0403480  27.9574720
  12.2748110  15.6123690  28.4323240  10.9311730  15.6042920  27.7348620
  14.8153340  15.4425040  23.2315000  15.0103970  16.3408490  23.4982430
  14.0283210  15.2112120  23.7247950   3.0005100  16.7885810  22.2691310
   3.5297860  16.0015610  22.1399260   3.6333420  17.4677000  22.5026840
   5.1942940  16.5260950  25.3236700   4.5645680  15.8248260  25.4906830
   4.6548080  17.2865080  25.1069860   8.1334890  33.1400180  37.9947310
   9.0602200  32.9044450  38.0383270   8.1185320  33.9672180  37.5133340
  16.3679950  32.6825750  24.9921560  16.5432140  31.9963490  24.3482480
  15.6701520  33.2072800  24.5998230   5.3198500  15.8044930  37.7589190
   5.0382770  16.3078530  36.9950010   5.7018200  15.0066680  37.3931320
   4.2107600  33.0720590  22.5456870   4.9426420  32.7879870  21.9980760
   4.4701270  32.8333870  23.4356250   3.3722390  29.1885320  22.5503200
   2.7431270  29.6570420  23.0989030   3.4870220  28.3434540  22.9849390
  11.9213960  15.2198510  38.3369660  11.8079410  15.5393120  39.2321180
  12.7383700  15.6211020  38.0406940  14.7012450  32.3670040  37.8188350
  15.4937770  31.8719270  37.6114310  14.9945600  33.0460180  38.4263960
  10.8272110  23.2390980   8.7004400  10.7466160  22.3245590   8.4296110
  10.4136530  23.7358050   7.9944110   8.9590150  25.0170000  10.5813670
   8.1832250  24.5370440  10.8712240   9.6103080  24.3375650  10.4069830
   2.9755980  25.3289810  11.4589430   2.1440860  25.0738520  11.8585940
   3.5836960  25.4000580  12.1947350  12.9797580  29.4230190   9.3612800
  12.5179110  28.6517430   9.6899970  13.7923130  29.4496260   9.8665250
   2.9557240  29.3629900  11.6547450   3.2585280  28.4727640  11.4757670
   3.7000830  29.9200120  11.4269700   9.2060890  31.7088200   8.9816790
   8.5872330  32.1645700   8.4111230  10.0612670  31.8639660   8.5806490
   8.3999140  27.6927190  10.5883830   8.3307420  26.7517130  10.4272960
   9.1619000  27.7828600  11.1606400   9.4304310  20.4997570  10.8152760
   9.8069130  19.6269450  10.7026430   9.3323820  20.8356270   9.9243200
   3.5609320  18.8723200   6.2770200   3.6676070  19.7726930   6.5838960
   2.6501680  18.8241170   5.9864850  13.2128430  17.9948010   7.7481100
  14.0338050  17.5044580   7.7906580  13.2462510  18.5845670   8.5012940
   5.4017050  21.8409570  10.6095380   5.9095270  22.3390540  11.2500400
   5.9330290  21.0644770  10.4334740  17.5027980  20.0114760  14.3124730
  16.7980150  20.3996470  13.7939840  17.7685900  20.7065050  14.9145660
   3.6853150  16.4808130  14.8758800   3.6871590  16.9980520  14.0704700
   2.8557460  16.0038310  14.8528730  10.0724240  26.5927440   6.3748700
   9.4541510  27.0576890   5.8111420  10.5847490  27.2854920   6.7918210
   4.9356000  26.1203310  13.0532300   4.6025380  26.7472230  13.6953370
   5.1122680  26.6465190  12.2733970  13.4489910  19.9348390  10.5208640
  12.7445480  20.2233280  11.1011750  13.8102070  20.7448500  10.1608200
   3.3668480  18.1918090  12.8829250   3.7085290  19.0360140  12.5883120
   2.4284290  18.3401830  12.9994590   4.1475100  28.0884110  14.8681480
   4.7649100  28.7635190  14.5865930   3.2868220  28.4972090  14.7768980
  15.0652690  29.5523520  12.7836120  14.3816210  30.2222630  12.7752790
  15.6046980  29.7504170  12.0180980  16.5176830  19.3803180  10.9117850
  15.5701740  19.4142160  11.0433280  16.8426820  20.1942130  11.2967210
   7.0496370  15.6800360   9.2073840   7.3571350  15.1247250   8.4909340
   6.1197070  15.8144820   9.0246830  12.6011430  31.3967650  11.4981300
  12.6138590  30.9929940  10.6303560  12.0486650  32.1714940  11.3942730
  13.8956850  28.1183870   6.5871470  13.7853180  27.1758200   6.7120890
  13.8925100  28.4799510   7.4734230  11.9996870  26.2997490  12.8263910
  12.4165660  26.0857600  11.9917370  12.7236690  26.5570280  13.3972530
   9.4377130  23.7449190   5.9433960   8.5106410  23.6786570   6.1722430
   9.5901950  24.6829320   5.8289200   9.4246210  20.0166190   2.9401120
   8.4849880  20.1780150   3.0253580   9.7429470  20.7351870   2.3937110
  15.9458970  24.6984710  12.9180150  15.1177600  24.7677800  12.4430280
  16.5409450  25.2839020  12.4495980  13.4674420  25.3069490   6.4469210
  12.8486840  24.9689040   5.7995510  13.4498870  24.6629250   7.1548400
  12.9100980  21.4854030  13.8635020  12.4972160  22.3107740  14.1175010
  12.1776930  20.8999070  13.6711380   5.0433770  24.2713930   8.7253690
   4.6390770  23.5591180   8.2299590   5.1296890  23.9267170   9.6141730
   5.5115470  27.9581490  10.8892900   5.2143760  27.3526960  10.2100680
   6.4615290  27.9958800  10.7782260   3.7562390  21.0457140  12.5052730
   4.3076980  21.1552480  11.7305980   4.2705900  21.4194740  13.2207960
  13.6001080  31.5313360  14.5516000  13.1231640  32.3385550  14.3588610
  12.9162870  30.8791690  14.7042210   4.6033900  27.6963180  17.5400700
   3.7062430  27.9203150  17.7874100   4.6286770  27.8198120  16.5912100
  11.6439120  24.5456300   3.4541960  12.0832400  23.7078730   3.3079780
  12.3567540  25.1785700   3.5406100   3.4305120  24.5676500  16.1158070
   3.2912890  25.4399300  16.4845470   2.5486480  24.2249310  15.9706010
   9.7534500  29.4852370   7.4223200  10.1930410  30.2276700   7.0078590
   9.6921390  29.7278940   8.3462160   5.2285470  30.5098200  18.3243220
   5.2000900  30.9141150  17.4571650   5.0650440  29.5808560  18.1614820
  15.2256260  15.7999110   1.7683000  14.9128920  15.8925940   2.6682070
  15.9868730  16.3780140   1.7180430  17.1800290  31.2925300  19.6207390
  17.6560010  31.7708190  20.2996470  17.8007450  31.2242790  18.8952890
  16.5833540  28.4838150  16.7807400  16.7096600  28.2450030  15.8624580
  16.6254920  27.6522690  17.2529480  10.4450280  32.1866150  15.3502210
  10.9594950  32.0974160  16.1524640   9.6019360  32.5325850  15.6430120
  12.4204680  32.4721490   4.7786210  12.2605820  32.1824430   5.6768040
  12.2551390  31.6961620   4.2431440   4.8993060  32.2520020   6.5557830
   4.7235540  31.3355560   6.3425630   4.0448800  32.6107310   6.7955630
  12.1230810  29.9809050   3.3384210  11.4295970  29.9786340   2.6786490
  12.8653670  29.5568370   2.9078380  11.6880740  31.6071760   7.4132700
  12.1437690  30.8261140   7.7271320  12.0273260  32.3178580   7.9573880
  16.4357550  20.5370610  17.7457140  15.8201820  21.0450280  17.2172600
  16.1153970  19.6368940  17.6883080   4.2102060  16.5093980   9.6084010
   3.7670210  17.2903520   9.2768530   4.7687050  16.8323870  10.3154950
   8.4971870  19.3762500  15.2119330   8.0351240  19.5845520  16.0239270
   8.0949980  18.5621850  14.9090000  13.4976380  20.5971450  16.3415990
  12.6469970  20.2977200  16.6625060  13.3378170  20.8413460  15.4299810
  10.5926090  22.0973200  18.4414780  10.9179500  21.2636950  18.1017010
  11.3806420  22.6201720  18.5893110   7.3260880  16.1304680   4.4889840
   6.7015060  16.1264550   5.2143150   7.2391000  15.2635640   4.0925810
   6.2477960  17.0541310  11.4673610   6.5450290  17.9604140  11.3865630
   6.7963520  16.5660090  10.8533180   4.0016280  21.6327550   7.3365260
   3.7757200  21.4164720   8.2411880   3.2208810  22.0656010   6.9911230
  11.2314040  21.6390920   5.9355910  10.6322930  22.3626720   5.7519530
  11.7793650  21.5767700   5.1532360   6.4415490  22.5313130  18.0025530
   6.3459090  21.5907860  17.8525930   7.2847470  22.7528200  17.6073600
   9.8378910  20.2754460   7.9659190  10.2308480  20.5926660   7.1527880
  10.1995760  19.3966340   8.0803710   8.1471080  19.0261770  19.2256050
   7.4569400  18.8333970  19.8602140   8.8903380  19.3096410  19.7580350
  10.4234050  22.8660210  12.0609970   9.6915170  23.3747020  12.4100070
  10.0258390  22.0490190  11.7598750   6.8611440  19.5414410  10.4662460
   6.8647500  19.1004360   9.6167000   7.7562560  19.8631740  10.5734280
   2.7113820  19.4240900   9.4256670   2.3713870  19.9016130  10.1823720
   1.9491140  18.9706020   9.0657770   6.9231590  20.5426490   3.4569220
   7.0444410  20.5012970   4.4055040   6.5380100  21.4050640   3.3015950
  10.8859960  18.3193890  11.4732910  10.9032700  18.7702540  12.3174760
  10.6375540  17.4199530  11.6866350   5.9353090  22.8527630   2.8552520
   5.3669990  22.4045880   2.2288430   6.6442090  23.2120410   2.3217670
  14.3130710  15.7326070  17.3119290  14.6376480  15.0015730  17.8377270
  14.3487220  15.4139710  16.4100280   7.1619410  23.6016190  12.2127870
   7.5289540  23.1274760  12.9589210   6.9724470  24.4757760  12.5536210
   4.9518780  22.6424830  14.5312080   4.6475850  23.5216810  14.7562440
   5.9065240  22.7024620  14.5669520   3.4800570  26.8485820   5.1278930
   2.7062830  26.3083440   4.9677650   4.2095200  26.3292430   4.7896690
  14.2388550  25.8451180  10.9205320  14.9587670  26.3406470  10.5301430
  14.0370370  25.1669070  10.2759190   9.6998490  17.2389140   5.0634710
   8.8863100  16.7402310   4.9880020   9.5060440  18.0787390   4.6471060
   9.6207350  25.9160240  16.8074320   9.5544660  24.9955910  16.5531910
   8.9912490  26.0135680  17.5218960  12.4146880  21.6108790   3.3596870
  13.3026500  21.9226020   3.1848210  12.3851970  20.7381040   2.9677450
   3.5237970  26.5166200   8.7657740   4.0416640  25.7134460   8.7114630
   3.0721990  26.4545340   9.6074570   8.4107470  27.7832480   4.0385040
   8.7523170  28.5274710   3.5428360   7.5820180  28.0963600   4.4009870
   4.2095630  23.9411810  18.5622990   3.9095770  24.0868990  17.6650810
   4.9806870  23.3817100  18.4696380   9.5524080  28.7380810  16.5578120
   9.5668620  27.8061770  16.3397030   8.8449180  28.8240570  17.1967890
  14.6861150  22.9220630   2.8276730  14.6024870  23.3534850   1.9773170
  15.4055340  23.3818980   3.2603550  15.7635290  25.3788150  15.9046700
  15.0383480  25.9716930  15.7076090  16.2910750  25.3711690  15.1060070
  15.7148400  29.7762890   5.5558860  15.0724560  29.1218510   5.8302580
  15.3279060  30.1817980   4.7799530  11.2934880  27.1048320   9.4030550
  11.6458700  26.5076450   8.7431920  10.4097210  26.7792550   9.5738800
   7.3798160  27.8646010   6.8100960   8.0669290  28.4115220   7.1908550
   6.5930580  28.4086740   6.8450570   6.6825370  24.8692040   6.4226320
   7.1388150  25.6797290   6.6486510   6.3313580  24.5515180   7.2544810
   8.9857980  30.3798380  13.6518620   9.6300200  30.5857760  14.3292040
   9.3487420  29.6186780  13.1989470   2.5837150  15.2129690   6.8948840
   2.4551780  15.2047590   7.8433760   1.7599170  15.5512780   6.5439850
  10.2590060  28.3830730  12.3696070  10.9012290  27.6823890  12.4828240
  10.7839410  29.1629170  12.1892960  12.0327680  29.1825630  15.5732130
  12.3683920  29.7692320  16.2510050  11.1128020  29.0518340  15.8029920
  13.6862030  26.5851290   3.7549370  13.3983730  27.0463980   4.5427250
  14.4814200  26.1249060   4.0233590   7.8616260  29.2316960  18.7420190
   7.5413130  28.5126200  19.2865880   7.1874620  29.9072030  18.8156250
   5.9030430  30.0777410   3.6853340   5.8940530  30.8107100   3.0697850
   4.9828790  29.8308990   3.7780300  11.0769860  19.4643120  14.1056990
  11.4450680  18.6438330  14.4336560  10.2168060  19.5245010  14.5212640
  14.4431890  18.4200060   4.9144550  13.8145050  18.5245730   4.2002780
  13.9483810  18.6396840   5.7038430   6.4115920  20.6986010   6.3302430
   5.7032070  21.1672350   6.7716040   6.6960400  20.0408020   6.9647620
   8.0371850  22.1182710  14.3294960   8.5357100  22.5928530  14.9946810
   8.1794800  21.1946230  14.5364990  10.4431350  17.4236670   7.7698220
  10.3199130  17.4422800   6.8207730  11.3915910  17.4715610   7.8896620
   7.5308140  32.6591970   7.0426200   7.7849640  32.6213360   6.1205570
   6.5820620  32.5325300   7.0354450   4.6150940  19.0071090   3.7053140
   5.4641470  19.4441240   3.6393330   4.2482210  19.3191350   4.5325200
  15.2438710  18.3350670  15.1723350  14.7412310  19.0756070  15.5117160
  16.0595370  18.7234670  14.8560140  13.5360720  23.5783850   8.6184710
  12.5950860  23.5934080   8.7932400  13.8504790  22.7919810   9.0645010
   2.2089120  22.6928520   2.8621560   2.2892710  21.7456030   2.9738960
   3.1008870  23.0235400   2.9682220  15.5386300  30.7492700  10.2938970
  15.6633720  31.5723870  10.7662780  16.4051860  30.5383430   9.9463120
   3.0103830  32.8423910   9.9656100   3.7466310  32.2939370  10.2364670
   3.3944750  33.7079920   9.8262090   2.0162110  32.0269980  19.1541680
   2.8174840  32.3482030  19.5677080   1.5013930  31.6665560  19.8761590
  10.8526740  28.1349850  19.1017090  10.2464900  28.1581450  18.3612840
  10.5480850  27.4032890  19.6384340  12.2827110  31.8630140  17.7126500
  13.2348860  31.7788160  17.6626740  12.1355330  32.5271850  18.3860290
  15.1736310  31.2424350   3.2118410  14.8877820  30.8289490   2.3972590
  14.9755860  32.1712060   3.0918930   6.7897860  25.9214430  17.6313250
   6.0243530  26.4899430  17.5467920   6.9713820  25.6290640  16.7381480
   9.8786270  26.2977660   2.2566010   9.3296370  26.7446960   2.9008750
  10.5005530  25.7926910   2.7803680  13.9321210  27.6519760  18.1888270
  14.6730680  27.9895520  17.6855730  13.1693890  27.8211820  17.6358040
   1.7683000  22.6573030  18.9927800   1.8088340  22.3586900  19.9013030
   2.6228500  23.0580640  18.8335320   5.5461390  25.2568580   4.1531310
   5.9677810  25.0908450   4.9962700   5.6712230  24.4468810   3.6586450
   3.7088810  21.2365130  16.9602290   3.1785270  20.7456080  16.3325630
   4.3776880  21.6649330  16.4260220  12.6066870  25.7034590  16.7243480
  13.0207890  25.8579670  17.5733900  11.6717870  25.8289810  16.8869260
  13.0789040  23.0430750  18.7282630  13.6609810  22.2883070  18.6403110
  13.2550810  23.5738190  17.9514110   4.1961110  18.2027500  17.0399580
   4.1017980  17.5848250  16.3150450   3.6158500  18.9293790  16.8129490
   6.9622550  16.7600740  14.0726970   6.5139850  16.7825000  13.2272520
   6.3287750  16.3619760  14.6697270   7.3682100  25.6555070  14.6939410
   7.7870210  26.4987800  14.5215650   6.4490730  25.7927110  14.4646190
   9.7046000  23.3871250  16.0777250   9.8242210  22.7912390  16.8172090
  10.5640000  23.4240940  15.6578550  12.0433900  23.9408440  14.6539760
  11.5169120  24.4651060  14.0504900  12.3865240  24.5735830  15.2849490
   5.2189520  31.9608080  15.8097140   4.6810610  32.6854140  15.4905840
   5.4723480  31.4838420  15.0194480   6.4714770  19.9292600  17.3353070
   7.0614460  19.6208450  18.0230890   5.6535010  19.4572350  17.4912970
  11.2908200  19.5458410  17.5686090  10.6023720  18.8839950  17.5036080
  12.0114220  19.0996680  18.0134550  11.9208600  16.1410040   3.6276350
  12.2010890  15.2977940   3.9835770  11.1474330  16.3733150   4.1415100
   8.0751730  33.1959290  16.0683790   8.0010430  34.0994430  16.3756160
   7.1730570  32.8771190  16.0405860   8.6237060  32.3617800   3.6910150
   9.5187850  32.7002770   3.7128910   8.6554690  31.6397210   3.0634430
   2.2633220  27.7344850   1.9197150   2.7008090  28.2774520   2.5754730
   2.7480950  26.9091800   1.9293490   4.0740940  28.8542890   7.0319380
   3.7736480  28.7307860   7.9323290   3.9678430  27.9951480   6.6235110
  15.6031410  30.8921470  16.3976350  15.0033400  30.9514030  15.6540270
  15.7325310  29.9526450  16.5273200  16.2989320  25.3786770   4.2380260
  17.0608230  25.9483420   4.3439950  16.3143690  24.8113970   5.0088570
  17.3049290  26.2336870   9.0822190  17.6758120  25.4504190   8.6758160
  17.9451220  26.9225970   8.9039490  14.2883050  27.6173450  14.4952510
  13.4742890  28.0470610  14.7578300  14.6957250  28.2291860  13.8821560
  12.7484100  18.6965990   2.6906410  13.1668980  18.5096970   1.8503070
  12.4420160  17.8445040   3.0009340  16.2473830  23.6090130   6.3882210
  15.8717430  22.8418060   5.9563500  15.5176950  23.9912830   6.8757140
  15.6373450  22.7561650  16.0221730  15.4059540  22.5274400  15.1219680
  15.8978000  23.6761200  15.9766620  14.0761520  17.9818080  18.8001430
  14.9531700  17.9901480  19.1835430  14.0882360  17.2448920  18.1893780
  15.5224790  21.8347620   9.6889450  16.0462270  21.3410270   9.0579620
  16.1084210  21.9697980  10.4337020  15.7014510  21.9187490  13.2109000
  14.7517220  21.8851030  13.3253990  15.8827520  22.8287600  12.9758770
  15.0124760  21.0920970   5.6281860  15.5083880  20.8591840   6.4130740
  14.8140830  20.2532810   5.2119500  16.4411920  19.7281920   8.1619540
  16.3311200  19.5737960   9.1001810  17.2019510  19.2002860   7.9194950
  14.7877640  15.6676050  14.6202540  15.4249860  16.2810190  14.9861730
  14.9352530  15.7036710  13.6751770  17.4040680  18.3300500   4.0282390
  16.6092180  18.2645620   4.5575300  17.6083960  19.2651140   4.0167740
  14.3459100  32.3692050   8.0220780  14.9418170  32.0476620   7.3455200
  14.6037250  31.8963870   8.8134050   2.2521670  28.8009960  18.1711410
   2.2091300  28.4302870  19.0525870   2.3832680  29.7387530  18.3113230
   5.9527700  30.3569550  13.7721130   5.7119060  30.6244110  12.8851650
   6.8930340  30.5275280  13.8271990   8.1582120  16.8202240  17.5277640
   8.0971010  17.4124070  18.2773050   9.0982500  16.7128200  17.3827900
  10.7956680  16.4772300  17.1669930  11.4097090  16.7951590  16.5051010
  11.3406240  15.9920890  17.7865790  17.2131860  32.3763930  14.5731770
  16.7190140  32.7732800  13.8558900  16.6045150  31.7513140  14.9669050
   2.0909700  31.7472210  15.2909190   1.4970020  31.6156910  16.0299230
   2.0833540  30.9110350  14.8251290  11.5364720  15.0404440  13.4939220
  10.6624560  15.3739550  13.2912150  11.4275470  14.5677620  14.3191090
  12.4436700  17.2475310  14.8780940  12.1150060  16.4327070  14.4982670
  13.3919000  17.2045120  14.7546630  14.8971310  33.0187350  11.8518510
  14.4374280  33.7703160  11.4776530  14.2683770  32.2993820  11.7933310
   5.3267030  31.3275590  11.0266640   5.8432050  30.7162950  10.5014900
   5.9764410  31.8304370  11.5177650   8.0662530  32.2184080  11.8535620
   8.3540340  31.9638380  10.9768630   8.5785750  31.6661440  12.4441190
   9.2839540  15.9574280  12.4332130   8.5011330  16.4319780  12.7128890
   8.9902470  15.0529110  12.3245310  13.8360610  16.6597380  10.4781220
  14.2768700  16.6042480   9.6302820  13.5668200  17.5755390  10.5491400
  15.6999180  16.2912620   8.4890040  15.6387580  15.3473840   8.3421060
  16.4791210  16.3992710   9.0343500   7.1693760  18.3761030   7.9448160
   6.3568270  18.0017920   7.6044040   7.6735400  17.6206110   8.2469350
  11.6718740  15.0403480   9.1831230  12.2748110  15.6123690   9.6579750
  10.9311730  15.6042920   8.9605130  14.8153340  15.4425040   4.4571510
  15.0103970  16.3408490   4.7238940  14.0283210  15.2112120   4.9504460
   3.0005100  16.7885810   3.4947820   3.5297860  16.0015610   3.3655770
   3.6333420  17.4677000   3.7283350   5.1942940  16.5260950   6.5493210
   4.5645680  15.8248260   6.7163340   4.6548080  17.2865080   6.3326370
   8.1334890  33.1400180  19.2203820   9.0602200  32.9044450  19.2639780
   8.1185320  33.9672180  18.7389850  16.3679950  32.6825750   6.2178070
  16.5432140  31.9963490   5.5738990  15.6701520  33.2072800   5.8254740
   5.3198500  15.8044930  18.9845700   5.0382770  16.3078530  18.2206520
   5.7018200  15.0066680  18.6187830   4.2107600  33.0720590   3.7713380
   4.9426420  32.7879870   3.2237270   4.4701270  32.8333870   4.6612760
   3.3722390  29.1885320   3.7759710   2.7431270  29.6570420   4.3245540
   3.4870220  28.3434540   4.2105900  11.9213960  15.2198510  19.5626170
  11.8079410  15.5393120  20.4577690  12.7383700  15.6211020  19.2663450
  14.7012450  32.3670040  19.0444860  15.4937770  31.8719270  18.8370820
  14.9945600  33.0460180  19.6520470  10.8272110   4.4647490  83.7978360
  10.7466160   3.5502100  83.5270070  10.4136530   4.9614560  83.0918070
   8.9590150   6.2426510  85.6787630   8.1832250   5.7626950  85.9686200
   9.6103080   5.5632160  85.5043790   2.9755980   6.5546320  86.5563390
   2.1440860   6.2995030  86.9559900   3.5836960   6.6257090  87.2921310
  12.9797580  10.6486700  84.4586760  12.5179110   9.8773940  84.7873930
  13.7923130  10.6752770  84.9639210   2.9557240  10.5886410  86.7521410
   3.2585280   9.6984150  86.5731630   3.7000830  11.1456630  86.5243660
   9.2060890  12.9344710  84.0790750   8.5872330  13.3902210  83.5085190
  10.0612670  13.0896170  83.6780450   8.3999140   8.9183700  85.6857790
   8.3307420   7.9773640  85.5246920   9.1619000   9.0085110  86.2580360
   5.4017050   3.0666080  85.7069340   5.9095270   3.5647050  86.3474360
   5.9330290   2.2901280  85.5308700  10.0724240   7.8183950  81.4722660
   9.4541510   8.2833400  80.9085380  10.5847490   8.5111430  81.8892170
   4.9356000   7.3459820  88.1506260   4.6025380   7.9728740  88.7927330
   5.1122680   7.8721700  87.3707930   4.1475100   9.3140620  89.9655440
   4.7649100   9.9891700  89.6839890   3.2868220   9.7228600  89.8742940
  15.0652690  10.7780030  87.8810080  14.3816210  11.4479140  87.8726750
  15.6046980  10.9760680  87.1154940  12.6011430  12.6224160  86.5955260
  12.6138590  12.2186450  85.7277520  12.0486650  13.3971450  86.4916690
  13.8956850   9.3440380  81.6845430  13.7853180   8.4014710  81.8094850
  13.8925100   9.7056020  82.5708190  11.9996870   7.5254000  87.9237870
  12.4165660   7.3114110  87.0891330  12.7236690   7.7826790  88.4946490
   9.4377130   4.9705700  81.0407920   8.5106410   4.9043080  81.2696390
   9.5901950   5.9085830  80.9263160  15.9458970   5.9241220  88.0154110
  15.1177600   5.9934310  87.5404240  16.5409450   6.5095530  87.5469940
  13.4674420   6.5326000  81.5443170  12.8486840   6.1945550  80.8969470
  13.4498870   5.8885760  82.2522360  12.9100980   2.7110540  88.9608980
  12.4972160   3.5364250  89.2148970  12.1776930   2.1255580  88.7685340
   5.0433770   5.4970440  83.8227650   4.6390770   4.7847690  83.3273550
   5.1296890   5.1523680  84.7115690   5.5115470   9.1838000  85.9866860
   5.2143760   8.5783470  85.3074640   6.4615290   9.2215310  85.8756220
   3.7562390   2.2713650  87.6026690   4.3076980   2.3808990  86.8279940
   4.2705900   2.6451250  88.3181920  13.6001080  12.7569870  89.6489960
  13.1231640  13.5642060  89.4562570  12.9162870  12.1048200  89.8016170
   4.6033900   8.9219690  92.6374660   3.7062430   9.1459660  92.8848060
   4.6286770   9.0454630  91.6886060  11.6439120   5.7712810  78.5515920
  12.0832400   4.9335240  78.4053740  12.3567540   6.4042210  78.6380060
   3.4305120   5.7933010  91.2132030   3.2912890   6.6655810  91.5819430
   2.5486480   5.4505820  91.0679970   9.7534500  10.7108880  82.5197160
  10.1930410  11.4533210  82.1052550   9.6921390  10.9535450  83.4436120
   5.2285470  11.7354710  93.4217180   5.2000900  12.1397660  92.5545610
   5.0650440  10.8065070  93.2588780  16.5833540   9.7094660  91.8781360
  16.7096600   9.4706540  90.9598540  16.6254920   8.8779200  92.3503440
  10.4450280  13.4122660  90.4476170  10.9594950  13.3230670  91.2498600
   9.6019360  13.7582360  90.7404080  12.4204680  13.6978000  79.8760170
  12.2605820  13.4080940  80.7742000  12.2551390  12.9218130  79.3405400
   4.8993060  13.4776530  81.6531790   4.7235540  12.5612070  81.4399590
   4.0448800  13.8363820  81.8929590  12.1230810  11.2065560  78.4358170
  11.4295970  11.2042850  77.7760450  12.8653670  10.7824880  78.0052340
  11.6880740  12.8328270  82.5106660  12.1437690  12.0517650  82.8245280
  12.0273260  13.5435090  83.0547840  13.4976380   1.8227960  91.4389950
  12.6469970   1.5233710  91.7599020  13.3378170   2.0669970  90.5273770
  10.5926090   3.3229710  93.5388740  10.9179500   2.4893460  93.1990970
  11.3806420   3.8458230  93.6867070   4.0016280   2.8584060  82.4339220
   3.7757200   2.6421230  83.3385840   3.2208810   3.2912520  82.0885190
  11.2314040   2.8647430  81.0329870  10.6322930   3.5883230  80.8493490
  11.7793650   2.8024210  80.2506320   6.4415490   3.7569640  93.0999490
   6.3459090   2.8164370  92.9499890   7.2847470   3.9784710  92.7047560
  10.4234050   4.0916720  87.1583930   9.6915170   4.6003530  87.5074030
  10.0258390   3.2746700  86.8572710   6.9231590   1.7683000  78.5543180
   7.0444410   1.7269480  79.5029000   6.5380100   2.6307150  78.3989910
   5.9353090   4.0784140  77.9526480   5.3669990   3.6302390  77.3262390
   6.6442090   4.4376920  77.4191630   7.1619410   4.8272700  87.3101830
   7.5289540   4.3531270  88.0563170   6.9724470   5.7014270  87.6510170
   4.9518780   3.8681340  89.6286040   4.6475850   4.7473320  89.8536400
   5.9065240   3.9281130  89.6643480   3.4800570   8.0742330  80.2252890
   2.7062830   7.5339950  80.0651610   4.2095200   7.5548940  79.8870650
  14.2388550   7.0707690  86.0179280  14.9587670   7.5662980  85.6275390
  14.0370370   6.3925580  85.3733150   9.6207350   7.1416750  91.9048280
   9.5544660   6.2212420  91.6505870   8.9912490   7.2392190  92.6192920
  12.4146880   2.8365300  78.4570830  13.3026500   3.1482530  78.2822170
  12.3851970   1.9637550  78.0651410   3.5237970   7.7422710  83.8631700
   4.0416640   6.9390970  83.8088590   3.0721990   7.6801850  84.7048530
   8.4107470   9.0088990  79.1359000   8.7523170   9.7531220  78.6402320
   7.5820180   9.3220110  79.4983830   4.2095630   5.1668320  93.6596950
   3.9095770   5.3125500  92.7624770   4.9806870   4.6073610  93.5670340
   9.5524080   9.9637320  91.6552080   9.5668620   9.0318280  91.4370990
   8.8449180  10.0497080  92.2941850  14.6861150   4.1477140  77.9250690
  14.6024870   4.5791360  77.0747130  15.4055340   4.6075490  78.3577510
  15.7635290   6.6044660  91.0020660  15.0383480   7.1973440  90.8050050
  16.2910750   6.5968200  90.2034030  15.7148400  11.0019400  80.6532820
  15.0724560  10.3475020  80.9276540  15.3279060  11.4074490  79.8773490
  11.2934880   8.3304830  84.5004510  11.6458700   7.7332960  83.8405880
  10.4097210   8.0049060  84.6712760   7.3798160   9.0902520  81.9074920
   8.0669290   9.6371730  82.2882510   6.5930580   9.6343250  81.9424530
   6.6825370   6.0948550  81.5200280   7.1388150   6.9053800  81.7460470
   6.3313580   5.7771690  82.3518770   8.9857980  11.6054890  88.7492580
   9.6300200  11.8114270  89.4266000   9.3487420  10.8443290  88.2963430
  10.2590060   9.6087240  87.4670030  10.9012290   8.9080400  87.5802200
  10.7839410  10.3885680  87.2866920  14.1045780   9.8935860  77.1909170
  13.8783360   9.1766300  77.7833810  13.7141980   9.6448300  76.3530920
  12.0327680  10.4082140  90.6706090  12.3683920  10.9948830  91.3484010
  11.1128020  10.2774850  90.9003880  13.6862030   7.8107800  78.8523330
  13.3983730   8.2720490  79.6401210  14.4814200   7.3505570  79.1207550
   5.9030430  11.3033920  78.7827300   5.8940530  12.0363610  78.1671810
   4.9828790  11.0565500  78.8754260   8.8890030  11.3662160  77.4452490
   8.9902010  11.1626150  76.5154470   7.9891770  11.1120440  77.6500270
   8.0371850   3.3439220  89.4268920   8.5357100   3.8185040  90.0920770
   8.1794800   2.4202740  89.6338950   7.5308140  13.8848480  82.1400160
   7.7849640  13.8469870  81.2179530   6.5820620  13.7581810  82.1328410
  13.5360720   4.8040360  83.7158670  12.5950860   4.8190590  83.8906360
  13.8504790   4.0176320  84.1618970   3.5142360   6.4859960  77.2762630
   4.2805630   6.3741320  77.8388060   3.5917050   5.7897930  76.6239400
   2.2089120   3.9185030  77.9595520   2.2892710   2.9712540  78.0712920
   3.1008870   4.2491910  78.0656180  15.5386300  11.9749210  85.3912930
  15.6633720  12.7980380  85.8636740  16.4051860  11.7639940  85.0437080
   3.0103830  14.0680420  85.0630060   3.7466310  13.5195880  85.3338630
   3.3944750  14.9336430  84.9236050   6.1206140  13.2410730  76.8855630
   6.9134750  13.5299560  76.4337420   5.6010490  12.8102900  76.2068110
  12.2827110  13.0886650  92.8100460  13.2348860  13.0044670  92.7600700
  12.1355330  13.7528360  93.4834250  15.1736310  12.4680860  78.3092370
  14.8877820  12.0546000  77.4946550  14.9755860  13.3968570  78.1892890
   6.6383540   8.4614140  76.7497980   6.5334180   7.8466490  77.4759360
   6.4707760   7.9380030  75.9660990   6.7897860   7.1470940  92.7287210
   6.0243530   7.7155940  92.6441880   6.9713820   6.8547150  91.8355440
   9.8786270   7.5234170  77.3539970   9.3296370   7.9703470  77.9982710
  10.5005530   7.0183420  77.8777640  13.9321210   8.8776270  93.2862230
  14.6730680   9.2152030  92.7829690  13.1693890   9.0468330  92.7332000
   5.5461390   6.4825090  79.2505270   5.9677810   6.3164960  80.0936660
   5.6712230   5.6725320  78.7560410   3.7088810   2.4621640  92.0576250
   3.1785270   1.9712590  91.4299590   4.3776880   2.8905840  91.5234180
   8.0589030   5.5062700  76.4982370   8.5794690   4.7911720  76.1323520
   8.7057430   6.1448570  76.7982880  12.6066870   6.9291100  91.8217440
  13.0207890   7.0836180  92.6707860  11.6717870   7.0546320  91.9843220
  13.0789040   4.2687260  93.8256590  13.6609810   3.5139580  93.7377070
  13.2550810   4.7994700  93.0488070   7.3682100   6.8811580  89.7913370
   7.7870210   7.7244310  89.6189610   6.4490730   7.0183620  89.5620150
   9.7046000   4.6127760  91.1751210   9.8242210   4.0168900  91.9146050
  10.5640000   4.6497450  90.7552510  12.0433900   5.1664950  89.7513720
  11.5169120   5.6907570  89.1478860  12.3865240   5.7992340  90.3823450
   4.4420290   2.5558320  76.1963430   4.2409350   1.6925680  76.5576770
   4.2712340   2.4691680  75.2585030   5.2189520  13.1864590  90.9071100
   4.6810610  13.9110650  90.5879800   5.4723480  12.7094930  90.1168440
   8.0751730  14.4215800  91.1657750   8.0010430  15.3250940  91.4730120
   7.1730570  14.1027700  91.1379820   8.6237060  13.5874310  78.7884110
   9.5187850  13.9259280  78.8102870   8.6554690  12.8653720  78.1608390
   2.2633220   8.9601360  77.0171110   2.7008090   9.5031030  77.6728690
   2.7480950   8.1348310  77.0267450   4.0740940  10.0799400  82.1293340
   3.7736480   9.9564370  83.0297250   3.9678430   9.2207990  81.7209070
  15.6031410  12.1177980  91.4950310  15.0033400  12.1770540  90.7514230
  15.7325310  11.1782960  91.6247160  16.8432860   9.8595800  76.8320020
  16.0125820   9.9272450  77.3027250  17.0204690  10.7499920  76.5286880
  16.2989320   6.6043280  79.3354220  17.0608230   7.1739930  79.4413910
  16.3143690   6.0370480  80.1062530  17.3049290   7.4593380  84.1796150
  17.6758120   6.6760700  83.7732120  17.9451220   8.1482480  84.0013450
  14.2883050   8.8429960  89.5926470  13.4742890   9.2727120  89.8552260
  14.6957250   9.4548370  88.9795520  16.3508490   6.8977650  76.4926740
  16.6257330   7.8056530  76.3645960  16.1619230   6.8340180  77.4288730
  16.2473830   4.8346640  81.4856170  15.8717430   4.0674570  81.0537460
  15.5176950   5.2169340  81.9731100  15.6373450   3.9818160  91.1195690
  15.4059540   3.7530910  90.2193640  15.8978000   4.9017710  91.0740580
  15.5224790   3.0604130  84.7863410  16.0462270   2.5666780  84.1553580
  16.1084210   3.1954490  85.5310980  15.7014510   3.1444000  88.3082960
  14.7517220   3.1107540  88.4227950  15.8827520   4.0544110  88.0732730
  15.0124760   2.3177480  80.7255820  15.5083880   2.0848350  81.5104700
  14.8140830   1.4789320  80.3093460  14.3459100  13.5948560  83.1194740
  14.9418170  13.2733130  82.4429160  14.6037250  13.1220380  83.9108010
   5.9527700  11.5826060  88.8695090   5.7119060  11.8500620  87.9825610
   6.8930340  11.7531790  88.9245950  17.2131860  13.6020440  89.6705730
  16.7190140  13.9989310  88.9532860  16.6045150  12.9769650  90.0643010
   2.0909700  12.9728720  90.3883150   1.4970020  12.8413420  91.1273190
   2.0833540  12.1366860  89.9225250  14.8971310  14.2443860  86.9492470
  14.4374280  14.9959670  86.5750490  14.2683770  13.5250330  86.8907270
   5.3267030  12.5532100  86.1240600   5.8432050  11.9419460  85.5988860
   5.9764410  13.0560880  86.6151610   8.0662530  13.4440590  86.9509580
   8.3540340  13.1894890  86.0742590   8.5785750  12.8917950  87.5415150
  16.3679950  13.9082260  81.3152030  16.5432140  13.2220000  80.6712950
  15.6701520  14.4329310  80.9228700   4.2107600  14.2977100  78.8687340
   4.9426420  14.0136380  78.3211230   4.4701270  14.0590380  79.7586720
   3.3722390  10.4141830  78.8733670   2.7431270  10.8826930  79.4219500
   3.4870220   9.5691050  79.3079860  10.8272110   4.4647490  65.0234870
  10.7466160   3.5502100  64.7526580  10.4136530   4.9614560  64.3174580
   8.9590150   6.2426510  66.9044140   8.1832250   5.7626950  67.1942710
   9.6103080   5.5632160  66.7300300   2.9755980   6.5546320  67.7819900
   2.1440860   6.2995030  68.1816410   3.5836960   6.6257090  68.5177820
  12.9797580  10.6486700  65.6843270  12.5179110   9.8773940  66.0130440
  13.7923130  10.6752770  66.1895720   2.9557240  10.5886410  67.9777920
   3.2585280   9.6984150  67.7988140   3.7000830  11.1456630  67.7500170
   9.2060890  12.9344710  65.3047260   8.5872330  13.3902210  64.7341700
  10.0612670  13.0896170  64.9036960   8.3999140   8.9183700  66.9114300
   8.3307420   7.9773640  66.7503430   9.1619000   9.0085110  67.4836870
   5.4017050   3.0666080  66.9325850   5.9095270   3.5647050  67.5730870
   5.9330290   2.2901280  66.7565210  10.0724240   7.8183950  62.6979170
   9.4541510   8.2833400  62.1341890  10.5847490   8.5111430  63.1148680
   4.9356000   7.3459820  69.3762770   4.6025380   7.9728740  70.0183840
   5.1122680   7.8721700  68.5964440   4.1475100   9.3140620  71.1911950
   4.7649100   9.9891700  70.9096400   3.2868220   9.7228600  71.0999450
  15.0652690  10.7780030  69.1066590  14.3816210  11.4479140  69.0983260
  15.6046980  10.9760680  68.3411450  12.6011430  12.6224160  67.8211770
  12.6138590  12.2186450  66.9534030  12.0486650  13.3971450  67.7173200
  13.8956850   9.3440380  62.9101940  13.7853180   8.4014710  63.0351360
  13.8925100   9.7056020  63.7964700  11.9996870   7.5254000  69.1494380
  12.4165660   7.3114110  68.3147840  12.7236690   7.7826790  69.7203000
   9.4377130   4.9705700  62.2664430   8.5106410   4.9043080  62.4952900
   9.5901950   5.9085830  62.1519670  15.9458970   5.9241220  69.2410620
  15.1177600   5.9934310  68.7660750  16.5409450   6.5095530  68.7726450
  13.4674420   6.5326000  62.7699680  12.8486840   6.1945550  62.1225980
  13.4498870   5.8885760  63.4778870  12.9100980   2.7110540  70.1865490
  12.4972160   3.5364250  70.4405480  12.1776930   2.1255580  69.9941850
   5.0433770   5.4970440  65.0484160   4.6390770   4.7847690  64.5530060
   5.1296890   5.1523680  65.9372200   5.5115470   9.1838000  67.2123370
   5.2143760   8.5783470  66.5331150   6.4615290   9.2215310  67.1012730
   3.7562390   2.2713650  68.8283200   4.3076980   2.3808990  68.0536450
   4.2705900   2.6451250  69.5438430  13.6001080  12.7569870  70.8746470
  13.1231640  13.5642060  70.6819080  12.9162870  12.1048200  71.0272680
   4.6033900   8.9219690  73.8631170   3.7062430   9.1459660  74.1104570
   4.6286770   9.0454630  72.9142570  11.6439120   5.7712810  59.7772430
  12.0832400   4.9335240  59.6310250  12.3567540   6.4042210  59.8636570
   3.4305120   5.7933010  72.4388540   3.2912890   6.6655810  72.8075940
   2.5486480   5.4505820  72.2936480   9.7534500  10.7108880  63.7453670
  10.1930410  11.4533210  63.3309060   9.6921390  10.9535450  64.6692630
   5.2285470  11.7354710  74.6473690   5.2000900  12.1397660  73.7802120
   5.0650440  10.8065070  74.4845290  17.1800290  12.5181810  75.9437860
  17.6560010  12.9964700  76.6226940  17.8007450  12.4499300  75.2183360
  16.5833540   9.7094660  73.1037870  16.7096600   9.4706540  72.1855050
  16.6254920   8.8779200  73.5759950  10.4450280  13.4122660  71.6732680
  10.9594950  13.3230670  72.4755110   9.6019360  13.7582360  71.9660590
  12.4204680  13.6978000  61.1016680  12.2605820  13.4080940  61.9998510
  12.2551390  12.9218130  60.5661910   4.8993060  13.4776530  62.8788300
   4.7235540  12.5612070  62.6656100   4.0448800  13.8363820  63.1186100
  12.1230810  11.2065560  59.6614680  11.4295970  11.2042850  59.0016960
  12.8653670  10.7824880  59.2308850  11.6880740  12.8328270  63.7363170
  12.1437690  12.0517650  64.0501790  12.0273260  13.5435090  64.2804350
  13.4976380   1.8227960  72.6646460  12.6469970   1.5233710  72.9855530
  13.3378170   2.0669970  71.7530280  10.5926090   3.3229710  74.7645250
  10.9179500   2.4893460  74.4247480  11.3806420   3.8458230  74.9123580
   4.0016280   2.8584060  63.6595730   3.7757200   2.6421230  64.5642350
   3.2208810   3.2912520  63.3141700  11.2314040   2.8647430  62.2586380
  10.6322930   3.5883230  62.0750000  11.7793650   2.8024210  61.4762830
   6.4415490   3.7569640  74.3256000   6.3459090   2.8164370  74.1756400
   7.2847470   3.9784710  73.9304070  10.4234050   4.0916720  68.3840440
   9.6915170   4.6003530  68.7330540  10.0258390   3.2746700  68.0829220
   6.9231590   1.7683000  59.7799690   7.0444410   1.7269480  60.7285510
   6.5380100   2.6307150  59.6246420   5.9353090   4.0784140  59.1782990
   5.3669990   3.6302390  58.5518900   6.6442090   4.4376920  58.6448140
   7.1619410   4.8272700  68.5358340   7.5289540   4.3531270  69.2819680
   6.9724470   5.7014270  68.8766680   4.9518780   3.8681340  70.8542550
   4.6475850   4.7473320  71.0792910   5.9065240   3.9281130  70.8899990
   3.4800570   8.0742330  61.4509400   2.7062830   7.5339950  61.2908120
   4.2095200   7.5548940  61.1127160  14.2388550   7.0707690  67.2435790
  14.9587670   7.5662980  66.8531900  14.0370370   6.3925580  66.5989660
   9.6207350   7.1416750  73.1304790   9.5544660   6.2212420  72.8762380
   8.9912490   7.2392190  73.8449430  12.4146880   2.8365300  59.6827340
  13.3026500   3.1482530  59.5078680  12.3851970   1.9637550  59.2907920
   3.5237970   7.7422710  65.0888210   4.0416640   6.9390970  65.0345100
   3.0721990   7.6801850  65.9305040   8.4107470   9.0088990  60.3615510
   8.7523170   9.7531220  59.8658830   7.5820180   9.3220110  60.7240340
   4.2095630   5.1668320  74.8853460   3.9095770   5.3125500  73.9881280
   4.9806870   4.6073610  74.7926850   9.5524080   9.9637320  72.8808590
   9.5668620   9.0318280  72.6627500   8.8449180  10.0497080  73.5198360
  14.6861150   4.1477140  59.1507200  14.6024870   4.5791360  58.3003640
  15.4055340   4.6075490  59.5834020  15.7635290   6.6044660  72.2277170
  15.0383480   7.1973440  72.0306560  16.2910750   6.5968200  71.4290540
  15.7148400  11.0019400  61.8789330  15.0724560  10.3475020  62.1533050
  15.3279060  11.4074490  61.1030000  11.2934880   8.3304830  65.7261020
  11.6458700   7.7332960  65.0662390  10.4097210   8.0049060  65.8969270
   7.3798160   9.0902520  63.1331430   8.0669290   9.6371730  63.5139020
   6.5930580   9.6343250  63.1681040   6.6825370   6.0948550  62.7456790
   7.1388150   6.9053800  62.9716980   6.3313580   5.7771690  63.5775280
   8.9857980  11.6054890  69.9749090   9.6300200  11.8114270  70.6522510
   9.3487420  10.8443290  69.5219940  10.2590060   9.6087240  68.6926540
  10.9012290   8.9080400  68.8058710  10.7839410  10.3885680  68.5123430
  14.1045780   9.8935860  58.4165680  13.8783360   9.1766300  59.0090320
  13.7141980   9.6448300  57.5787430  12.0327680  10.4082140  71.8962600
  12.3683920  10.9948830  72.5740520  11.1128020  10.2774850  72.1260390
  13.6862030   7.8107800  60.0779840  13.3983730   8.2720490  60.8657720
  14.4814200   7.3505570  60.3464060   7.8616260  10.4573470  75.0650660
   7.5413130   9.7382710  75.6096350   7.1874620  11.1328540  75.1386720
   5.9030430  11.3033920  60.0083810   5.8940530  12.0363610  59.3928320
   4.9828790  11.0565500  60.1010770   8.8890030  11.3662160  58.6709000
   8.9902010  11.1626150  57.7410980   7.9891770  11.1120440  58.8756780
   8.0371850   3.3439220  70.6525430   8.5357100   3.8185040  71.3177280
   8.1794800   2.4202740  70.8595460   7.5308140  13.8848480  63.3656670
   7.7849640  13.8469870  62.4436040   6.5820620  13.7581810  63.3584920
  13.5360720   4.8040360  64.9415180  12.5950860   4.8190590  65.1162870
  13.8504790   4.0176320  65.3875480   3.5142360   6.4859960  58.5019140
   4.2805630   6.3741320  59.0644570   3.5917050   5.7897930  57.8495910
   2.2089120   3.9185030  59.1852030   2.2892710   2.9712540  59.2969430
   3.1008870   4.2491910  59.2912690  15.5386300  11.9749210  66.6169440
  15.6633720  12.7980380  67.0893250  16.4051860  11.7639940  66.2693590
   3.0103830  14.0680420  66.2886570   3.7466310  13.5195880  66.5595140
   3.3944750  14.9336430  66.1492560   2.0162110  13.2526490  75.4772150
   2.8174840  13.5738540  75.8907550   1.5013930  12.8922070  76.1992060
   6.1206140  13.2410730  58.1112140   6.9134750  13.5299560  57.6593930
   5.6010490  12.8102900  57.4324620  10.8526740   9.3606360  75.4247560
  10.2464900   9.3837960  74.6843310  10.5480850   8.6289400  75.9614810
  12.2827110  13.0886650  74.0356970  13.2348860  13.0044670  73.9857210
  12.1355330  13.7528360  74.7090760  15.1736310  12.4680860  59.5348880
  14.8877820  12.0546000  58.7203060  14.9755860  13.3968570  59.4149400
   6.6383540   8.4614140  57.9754490   6.5334180   7.8466490  58.7015870
   6.4707760   7.9380030  57.1917500   6.7897860   7.1470940  73.9543720
   6.0243530   7.7155940  73.8698390   6.9713820   6.8547150  73.0611950
   9.8786270   7.5234170  58.5796480   9.3296370   7.9703470  59.2239220
  10.5005530   7.0183420  59.1034150  13.9321210   8.8776270  74.5118740
  14.6730680   9.2152030  74.0086200  13.1693890   9.0468330  73.9588510
   1.7683000   3.8829540  75.3158270   1.8088340   3.5843410  76.2243500
   2.6228500   4.2837150  75.1565790   5.5461390   6.4825090  60.4761780
   5.9677810   6.3164960  61.3193170   5.6712230   5.6725320  59.9816920
   3.7088810   2.4621640  73.2832760   3.1785270   1.9712590  72.6556100
   4.3776880   2.8905840  72.7490690   8.0589030   5.5062700  57.7238880
   8.5794690   4.7911720  57.3580030   8.7057430   6.1448570  58.0239390
  12.6066870   6.9291100  73.0473950  13.0207890   7.0836180  73.8964370
  11.6717870   7.0546320  73.2099730  13.0789040   4.2687260  75.0513100
  13.6609810   3.5139580  74.9633580  13.2550810   4.7994700  74.2744580
   7.3682100   6.8811580  71.0169880   7.7870210   7.7244310  70.8446120
   6.4490730   7.0183620  70.7876660   9.7046000   4.6127760  72.4007720
   9.8242210   4.0168900  73.1402560  10.5640000   4.6497450  71.9809020
  12.0433900   5.1664950  70.9770230  11.5169120   5.6907570  70.3735370
  12.3865240   5.7992340  71.6079960   4.4420290   2.5558320  57.4219940
   4.2409350   1.6925680  57.7833280   4.2712340   2.4691680  56.4841540
   5.2189520  13.1864590  72.1327610   4.6810610  13.9110650  71.8136310
   5.4723480  12.7094930  71.3424950   8.0751730  14.4215800  72.3914260
   8.0010430  15.3250940  72.6986630   7.1730570  14.1027700  72.3636330
   8.6237060  13.5874310  60.0140620   9.5187850  13.9259280  60.0359380
   8.6554690  12.8653720  59.3864900   2.2633220   8.9601360  58.2427620
   2.7008090   9.5031030  58.8985200   2.7480950   8.1348310  58.2523960
   4.0740940  10.0799400  63.3549850   3.7736480   9.9564370  64.2553760
   3.9678430   9.2207990  62.9465580  15.6031410  12.1177980  72.7206820
  15.0033400  12.1770540  71.9770740  15.7325310  11.1782960  72.8503670
  16.8432860   9.8595800  58.0576530  16.0125820   9.9272450  58.5283760
  17.0204690  10.7499920  57.7543390  16.2989320   6.6043280  60.5610730
  17.0608230   7.1739930  60.6670420  16.3143690   6.0370480  61.3319040
  17.3049290   7.4593380  65.4052660  17.6758120   6.6760700  64.9988630
  17.9451220   8.1482480  65.2269960  14.2883050   8.8429960  70.8182980
  13.4742890   9.2727120  71.0808770  14.6957250   9.4548370  70.2052030
  16.3508490   6.8977650  57.7183250  16.6257330   7.8056530  57.5902470
  16.1619230   6.8340180  58.6545240  16.2473830   4.8346640  62.7112680
  15.8717430   4.0674570  62.2793970  15.5176950   5.2169340  63.1987610
  15.6373450   3.9818160  72.3452200  15.4059540   3.7530910  71.4450150
  15.8978000   4.9017710  72.2997090  15.5224790   3.0604130  66.0119920
  16.0462270   2.5666780  65.3810090  16.1084210   3.1954490  66.7567490
  15.7014510   3.1444000  69.5339470  14.7517220   3.1107540  69.6484460
  15.8827520   4.0544110  69.2989240  15.0124760   2.3177480  61.9512330
  15.5083880   2.0848350  62.7361210  14.8140830   1.4789320  61.5349970
  14.3459100  13.5948560  64.3451250  14.9418170  13.2733130  63.6685670
  14.6037250  13.1220380  65.1364520   2.2521670  10.0266470  74.4941880
   2.2091300   9.6559380  75.3756340   2.3832680  10.9644040  74.6343700
   5.9527700  11.5826060  70.0951600   5.7119060  11.8500620  69.2082120
   6.8930340  11.7531790  70.1502460  17.2131860  13.6020440  70.8962240
  16.7190140  13.9989310  70.1789370  16.6045150  12.9769650  71.2899520
   2.0909700  12.9728720  71.6139660   1.4970020  12.8413420  72.3529700
   2.0833540  12.1366860  71.1481760  14.8971310  14.2443860  68.1748980
  14.4374280  14.9959670  67.8007000  14.2683770  13.5250330  68.1163780
   5.3267030  12.5532100  67.3497110   5.8432050  11.9419460  66.8245370
   5.9764410  13.0560880  67.8408120   8.0662530  13.4440590  68.1766090
   8.3540340  13.1894890  67.2999100   8.5785750  12.8917950  68.7671660
   8.1334890  14.3656690  75.5434290   9.0602200  14.1300960  75.5870250
   8.1185320  15.1928690  75.0620320  16.3679950  13.9082260  62.5408540
  16.5432140  13.2220000  61.8969460  15.6701520  14.4329310  62.1485210
   4.2107600  14.2977100  60.0943850   4.9426420  14.0136380  59.5467740
   4.4701270  14.0590380  60.9843230   3.3722390  10.4141830  60.0990180
   2.7431270  10.8826930  60.6476010   3.4870220   9.5691050  60.5336370
  14.7012450  13.5926550  75.3675330  15.4937770  13.0975780  75.1601290
  14.9945600  14.2716690  75.9750940  10.8272110   4.4647490  46.2491380
  10.7466160   3.5502100  45.9783090  10.4136530   4.9614560  45.5431090
   8.9590150   6.2426510  48.1300650   8.1832250   5.7626950  48.4199220
   9.6103080   5.5632160  47.9556810   2.9755980   6.5546320  49.0076410
   2.1440860   6.2995030  49.4072920   3.5836960   6.6257090  49.7434330
  12.9797580  10.6486700  46.9099780  12.5179110   9.8773940  47.2386950
  13.7923130  10.6752770  47.4152230   2.9557240  10.5886410  49.2034430
   3.2585280   9.6984150  49.0244650   3.7000830  11.1456630  48.9756680
   9.2060890  12.9344710  46.5303770   8.5872330  13.3902210  45.9598210
  10.0612670  13.0896170  46.1293470   8.3999140   8.9183700  48.1370810
   8.3307420   7.9773640  47.9759940   9.1619000   9.0085110  48.7093380
   5.4017050   3.0666080  48.1582360   5.9095270   3.5647050  48.7987380
   5.9330290   2.2901280  47.9821720  10.0724240   7.8183950  43.9235680
   9.4541510   8.2833400  43.3598400  10.5847490   8.5111430  44.3405190
   4.9356000   7.3459820  50.6019280   4.6025380   7.9728740  51.2440350
   5.1122680   7.8721700  49.8220950   4.1475100   9.3140620  52.4168460
   4.7649100   9.9891700  52.1352910   3.2868220   9.7228600  52.3255960
  15.0652690  10.7780030  50.3323100  14.3816210  11.4479140  50.3239770
  15.6046980  10.9760680  49.5667960  12.6011430  12.6224160  49.0468280
  12.6138590  12.2186450  48.1790540  12.0486650  13.3971450  48.9429710
  13.8956850   9.3440380  44.1358450  13.7853180   8.4014710  44.2607870
  13.8925100   9.7056020  45.0221210  11.9996870   7.5254000  50.3750890
  12.4165660   7.3114110  49.5404350  12.7236690   7.7826790  50.9459510
   9.4377130   4.9705700  43.4920940   8.5106410   4.9043080  43.7209410
   9.5901950   5.9085830  43.3776180  15.9458970   5.9241220  50.4667130
  15.1177600   5.9934310  49.9917260  16.5409450   6.5095530  49.9982960
  13.4674420   6.5326000  43.9956190  12.8486840   6.1945550  43.3482490
  13.4498870   5.8885760  44.7035380  12.9100980   2.7110540  51.4122000
  12.4972160   3.5364250  51.6661990  12.1776930   2.1255580  51.2198360
   5.0433770   5.4970440  46.2740670   4.6390770   4.7847690  45.7786570
   5.1296890   5.1523680  47.1628710   5.5115470   9.1838000  48.4379880
   5.2143760   8.5783470  47.7587660   6.4615290   9.2215310  48.3269240
   3.7562390   2.2713650  50.0539710   4.3076980   2.3808990  49.2792960
   4.2705900   2.6451250  50.7694940  13.6001080  12.7569870  52.1002980
  13.1231640  13.5642060  51.9075590  12.9162870  12.1048200  52.2529190
   4.6033900   8.9219690  55.0887680   3.7062430   9.1459660  55.3361080
   4.6286770   9.0454630  54.1399080  11.6439120   5.7712810  41.0028940
  12.0832400   4.9335240  40.8566760  12.3567540   6.4042210  41.0893080
   3.4305120   5.7933010  53.6645050   3.2912890   6.6655810  54.0332450
   2.5486480   5.4505820  53.5192990   9.7534500  10.7108880  44.9710180
  10.1930410  11.4533210  44.5565570   9.6921390  10.9535450  45.8949140
   5.2285470  11.7354710  55.8730200   5.2000900  12.1397660  55.0058630
   5.0650440  10.8065070  55.7101800  17.1800290  12.5181810  57.1694370
  17.6560010  12.9964700  57.8483450  17.8007450  12.4499300  56.4439870
  16.5833540   9.7094660  54.3294380  16.7096600   9.4706540  53.4111560
  16.6254920   8.8779200  54.8016460  10.4450280  13.4122660  52.8989190
  10.9594950  13.3230670  53.7011620   9.6019360  13.7582360  53.1917100
  12.4204680  13.6978000  42.3273190  12.2605820  13.4080940  43.2255020
  12.2551390  12.9218130  41.7918420   4.8993060  13.4776530  44.1044810
   4.7235540  12.5612070  43.8912610   4.0448800  13.8363820  44.3442610
  12.1230810  11.2065560  40.8871190  11.4295970  11.2042850  40.2273470
  12.8653670  10.7824880  40.4565360  11.6880740  12.8328270  44.9619680
  12.1437690  12.0517650  45.2758300  12.0273260  13.5435090  45.5060860
  13.4976380   1.8227960  53.8902970  12.6469970   1.5233710  54.2112040
  13.3378170   2.0669970  52.9786790  10.5926090   3.3229710  55.9901760
  10.9179500   2.4893460  55.6503990  11.3806420   3.8458230  56.1380090
   4.0016280   2.8584060  44.8852240   3.7757200   2.6421230  45.7898860
   3.2208810   3.2912520  44.5398210  11.2314040   2.8647430  43.4842890
  10.6322930   3.5883230  43.3006510  11.7793650   2.8024210  42.7019340
   6.4415490   3.7569640  55.5512510   6.3459090   2.8164370  55.4012910
   7.2847470   3.9784710  55.1560580  10.4234050   4.0916720  49.6096950
   9.6915170   4.6003530  49.9587050  10.0258390   3.2746700  49.3085730
   6.9231590   1.7683000  41.0056200   7.0444410   1.7269480  41.9542020
   6.5380100   2.6307150  40.8502930   5.9353090   4.0784140  40.4039500
   5.3669990   3.6302390  39.7775410   6.6442090   4.4376920  39.8704650
   7.1619410   4.8272700  49.7614850   7.5289540   4.3531270  50.5076190
   6.9724470   5.7014270  50.1023190   4.9518780   3.8681340  52.0799060
   4.6475850   4.7473320  52.3049420   5.9065240   3.9281130  52.1156500
   3.4800570   8.0742330  42.6765910   2.7062830   7.5339950  42.5164630
   4.2095200   7.5548940  42.3383670  14.2388550   7.0707690  48.4692300
  14.9587670   7.5662980  48.0788410  14.0370370   6.3925580  47.8246170
   9.6207350   7.1416750  54.3561300   9.5544660   6.2212420  54.1018890
   8.9912490   7.2392190  55.0705940  12.4146880   2.8365300  40.9083850
  13.3026500   3.1482530  40.7335190  12.3851970   1.9637550  40.5164430
   3.5237970   7.7422710  46.3144720   4.0416640   6.9390970  46.2601610
   3.0721990   7.6801850  47.1561550   8.4107470   9.0088990  41.5872020
   8.7523170   9.7531220  41.0915340   7.5820180   9.3220110  41.9496850
   4.2095630   5.1668320  56.1109970   3.9095770   5.3125500  55.2137790
   4.9806870   4.6073610  56.0183360   9.5524080   9.9637320  54.1065100
   9.5668620   9.0318280  53.8884010   8.8449180  10.0497080  54.7454870
  14.6861150   4.1477140  40.3763710  14.6024870   4.5791360  39.5260150
  15.4055340   4.6075490  40.8090530  15.7635290   6.6044660  53.4533680
  15.0383480   7.1973440  53.2563070  16.2910750   6.5968200  52.6547050
  15.7148400  11.0019400  43.1045840  15.0724560  10.3475020  43.3789560
  15.3279060  11.4074490  42.3286510  11.2934880   8.3304830  46.9517530
  11.6458700   7.7332960  46.2918900  10.4097210   8.0049060  47.1225780
   7.3798160   9.0902520  44.3587940   8.0669290   9.6371730  44.7395530
   6.5930580   9.6343250  44.3937550   6.6825370   6.0948550  43.9713300
   7.1388150   6.9053800  44.1973490   6.3313580   5.7771690  44.8031790
   8.9857980  11.6054890  51.2005600   9.6300200  11.8114270  51.8779020
   9.3487420  10.8443290  50.7476450  10.2590060   9.6087240  49.9183050
  10.9012290   8.9080400  50.0315220  10.7839410  10.3885680  49.7379940
  14.1045780   9.8935860  39.6422190  13.8783360   9.1766300  40.2346830
  13.7141980   9.6448300  38.8043940  12.0327680  10.4082140  53.1219110
  12.3683920  10.9948830  53.7997030  11.1128020  10.2774850  53.3516900
  13.6862030   7.8107800  41.3036350  13.3983730   8.2720490  42.0914230
  14.4814200   7.3505570  41.5720570   7.8616260  10.4573470  56.2907170
   7.5413130   9.7382710  56.8352860   7.1874620  11.1328540  56.3643230
   5.9030430  11.3033920  41.2340320   5.8940530  12.0363610  40.6184830
   4.9828790  11.0565500  41.3267280   8.8890030  11.3662160  39.8965510
   8.9902010  11.1626150  38.9667490   7.9891770  11.1120440  40.1013290
   8.0371850   3.3439220  51.8781940   8.5357100   3.8185040  52.5433790
   8.1794800   2.4202740  52.0851970   7.5308140  13.8848480  44.5913180
   7.7849640  13.8469870  43.6692550   6.5820620  13.7581810  44.5841430
  13.5360720   4.8040360  46.1671690  12.5950860   4.8190590  46.3419380
  13.8504790   4.0176320  46.6131990   3.5142360   6.4859960  39.7275650
   4.2805630   6.3741320  40.2901080   3.5917050   5.7897930  39.0752420
   2.2089120   3.9185030  40.4108540   2.2892710   2.9712540  40.5225940
   3.1008870   4.2491910  40.5169200  15.5386300  11.9749210  47.8425950
  15.6633720  12.7980380  48.3149760  16.4051860  11.7639940  47.4950100
   3.0103830  14.0680420  47.5143080   3.7466310  13.5195880  47.7851650
   3.3944750  14.9336430  47.3749070   2.0162110  13.2526490  56.7028660
   2.8174840  13.5738540  57.1164060   1.5013930  12.8922070  57.4248570
   6.1206140  13.2410730  39.3368650   6.9134750  13.5299560  38.8850440
   5.6010490  12.8102900  38.6581130  10.8526740   9.3606360  56.6504070
  10.2464900   9.3837960  55.9099820  10.5480850   8.6289400  57.1871320
  12.2827110  13.0886650  55.2613480  13.2348860  13.0044670  55.2113720
  12.1355330  13.7528360  55.9347270  15.1736310  12.4680860  40.7605390
  14.8877820  12.0546000  39.9459570  14.9755860  13.3968570  40.6405910
   6.6383540   8.4614140  39.2011000   6.5334180   7.8466490  39.9272380
   6.4707760   7.9380030  38.4174010   6.7897860   7.1470940  55.1800230
   6.0243530   7.7155940  55.0954900   6.9713820   6.8547150  54.2868460
   9.8786270   7.5234170  39.8052990   9.3296370   7.9703470  40.4495730
  10.5005530   7.0183420  40.3290660  13.9321210   8.8776270  55.7375250
  14.6730680   9.2152030  55.2342710  13.1693890   9.0468330  55.1845020
   1.7683000   3.8829540  56.5414780   1.8088340   3.5843410  57.4500010
   2.6228500   4.2837150  56.3822300   5.5461390   6.4825090  41.7018290
   5.9677810   6.3164960  42.5449680   5.6712230   5.6725320  41.2073430
   3.7088810   2.4621640  54.5089270   3.1785270   1.9712590  53.8812610
   4.3776880   2.8905840  53.9747200   8.0589030   5.5062700  38.9495390
   8.5794690   4.7911720  38.5836540   8.7057430   6.1448570  39.2495900
  12.6066870   6.9291100  54.2730460  13.0207890   7.0836180  55.1220880
  11.6717870   7.0546320  54.4356240  13.0789040   4.2687260  56.2769610
  13.6609810   3.5139580  56.1890090  13.2550810   4.7994700  55.5001090
   7.3682100   6.8811580  52.2426390   7.7870210   7.7244310  52.0702630
   6.4490730   7.0183620  52.0133170   9.7046000   4.6127760  53.6264230
   9.8242210   4.0168900  54.3659070  10.5640000   4.6497450  53.2065530
  12.0433900   5.1664950  52.2026740  11.5169120   5.6907570  51.5991880
  12.3865240   5.7992340  52.8336470   4.4420290   2.5558320  38.6476450
   4.2409350   1.6925680  39.0089790   4.2712340   2.4691680  37.7098050
   5.2189520  13.1864590  53.3584120   4.6810610  13.9110650  53.0392820
   5.4723480  12.7094930  52.5681460   8.0751730  14.4215800  53.6170770
   8.0010430  15.3250940  53.9243140   7.1730570  14.1027700  53.5892840
   8.6237060  13.5874310  41.2397130   9.5187850  13.9259280  41.2615890
   8.6554690  12.8653720  40.6121410   2.2633220   8.9601360  39.4684130
   2.7008090   9.5031030  40.1241710   2.7480950   8.1348310  39.4780470
   4.0740940  10.0799400  44.5806360   3.7736480   9.9564370  45.4810270
   3.9678430   9.2207990  44.1722090  15.6031410  12.1177980  53.9463330
  15.0033400  12.1770540  53.2027250  15.7325310  11.1782960  54.0760180
  16.8432860   9.8595800  39.2833040  16.0125820   9.9272450  39.7540270
  17.0204690  10.7499920  38.9799900  16.2989320   6.6043280  41.7867240
  17.0608230   7.1739930  41.8926930  16.3143690   6.0370480  42.5575550
  17.3049290   7.4593380  46.6309170  17.6758120   6.6760700  46.2245140
  17.9451220   8.1482480  46.4526470  14.2883050   8.8429960  52.0439490
  13.4742890   9.2727120  52.3065280  14.6957250   9.4548370  51.4308540
  16.3508490   6.8977650  38.9439760  16.6257330   7.8056530  38.8158980
  16.1619230   6.8340180  39.8801750  16.2473830   4.8346640  43.9369190
  15.8717430   4.0674570  43.5050480  15.5176950   5.2169340  44.4244120
  15.6373450   3.9818160  53.5708710  15.4059540   3.7530910  52.6706660
  15.8978000   4.9017710  53.5253600  15.5224790   3.0604130  47.2376430
  16.0462270   2.5666780  46.6066600  16.1084210   3.1954490  47.9824000
  15.7014510   3.1444000  50.7595980  14.7517220   3.1107540  50.8740970
  15.8827520   4.0544110  50.5245750  15.0124760   2.3177480  43.1768840
  15.5083880   2.0848350  43.9617720  14.8140830   1.4789320  42.7606480
  14.3459100  13.5948560  45.5707760  14.9418170  13.2733130  44.8942180
  14.6037250  13.1220380  46.3621030   2.2521670  10.0266470  55.7198390
   2.2091300   9.6559380  56.6012850   2.3832680  10.9644040  55.8600210
   5.9527700  11.5826060  51.3208110   5.7119060  11.8500620  50.4338630
   6.8930340  11.7531790  51.3758970  17.2131860  13.6020440  52.1218750
  16.7190140  13.9989310  51.4045880  16.6045150  12.9769650  52.5156030
   2.0909700  12.9728720  52.8396170   1.4970020  12.8413420  53.5786210
   2.0833540  12.1366860  52.3738270  14.8971310  14.2443860  49.4005490
  14.4374280  14.9959670  49.0263510  14.2683770  13.5250330  49.3420290
   5.3267030  12.5532100  48.5753620   5.8432050  11.9419460  48.0501880
   5.9764410  13.0560880  49.0664630   8.0662530  13.4440590  49.4022600
   8.3540340  13.1894890  48.5255610   8.5785750  12.8917950  49.9928170
   8.1334890  14.3656690  56.7690800   9.0602200  14.1300960  56.8126760
   8.1185320  15.1928690  56.2876830  16.3679950  13.9082260  43.7665050
  16.5432140  13.2220000  43.1225970  15.6701520  14.4329310  43.3741720
   4.2107600  14.2977100  41.3200360   4.9426420  14.0136380  40.7724250
   4.4701270  14.0590380  42.2099740   3.3722390  10.4141830  41.3246690
   2.7431270  10.8826930  41.8732520   3.4870220   9.5691050  41.7592880
  14.7012450  13.5926550  56.5931840  15.4937770  13.0975780  56.3857800
  14.9945600  14.2716690  57.2007450  10.8272110   4.4647490  27.4747890
  10.7466160   3.5502100  27.2039600  10.4136530   4.9614560  26.7687600
   8.9590150   6.2426510  29.3557160   8.1832250   5.7626950  29.6455730
   9.6103080   5.5632160  29.1813320   2.9755980   6.5546320  30.2332920
   2.1440860   6.2995030  30.6329430   3.5836960   6.6257090  30.9690840
  12.9797580  10.6486700  28.1356290  12.5179110   9.8773940  28.4643460
  13.7923130  10.6752770  28.6408740   2.9557240  10.5886410  30.4290940
   3.2585280   9.6984150  30.2501160   3.7000830  11.1456630  30.2013190
   9.2060890  12.9344710  27.7560280   8.5872330  13.3902210  27.1854720
  10.0612670  13.0896170  27.3549980   8.3999140   8.9183700  29.3627320
   8.3307420   7.9773640  29.2016450   9.1619000   9.0085110  29.9349890
   5.4017050   3.0666080  29.3838870   5.9095270   3.5647050  30.0243890
   5.9330290   2.2901280  29.2078230  10.0724240   7.8183950  25.1492190
   9.4541510   8.2833400  24.5854910  10.5847490   8.5111430  25.5661700
   4.9356000   7.3459820  31.8275790   4.6025380   7.9728740  32.4696860
   5.1122680   7.8721700  31.0477460   4.1475100   9.3140620  33.6424970
   4.7649100   9.9891700  33.3609420   3.2868220   9.7228600  33.5512470
  15.0652690  10.7780030  31.5579610  14.3816210  11.4479140  31.5496280
  15.6046980  10.9760680  30.7924470  12.6011430  12.6224160  30.2724790
  12.6138590  12.2186450  29.4047050  12.0486650  13.3971450  30.1686220
  13.8956850   9.3440380  25.3614960  13.7853180   8.4014710  25.4864380
  13.8925100   9.7056020  26.2477720  11.9996870   7.5254000  31.6007400
  12.4165660   7.3114110  30.7660860  12.7236690   7.7826790  32.1716020
   9.4377130   4.9705700  24.7177450   8.5106410   4.9043080  24.9465920
   9.5901950   5.9085830  24.6032690  15.9458970   5.9241220  31.6923640
  15.1177600   5.9934310  31.2173770  16.5409450   6.5095530  31.2239470
  13.4674420   6.5326000  25.2212700  12.8486840   6.1945550  24.5739000
  13.4498870   5.8885760  25.9291890  12.9100980   2.7110540  32.6378510
  12.4972160   3.5364250  32.8918500  12.1776930   2.1255580  32.4454870
   5.0433770   5.4970440  27.4997180   4.6390770   4.7847690  27.0043080
   5.1296890   5.1523680  28.3885220   5.5115470   9.1838000  29.6636390
   5.2143760   8.5783470  28.9844170   6.4615290   9.2215310  29.5525750
   3.7562390   2.2713650  31.2796220   4.3076980   2.3808990  30.5049470
   4.2705900   2.6451250  31.9951450  13.6001080  12.7569870  33.3259490
  13.1231640  13.5642060  33.1332100  12.9162870  12.1048200  33.4785700
   4.6033900   8.9219690  36.3144190   3.7062430   9.1459660  36.5617590
   4.6286770   9.0454630  35.3655590  11.6439120   5.7712810  22.2285450
  12.0832400   4.9335240  22.0823270  12.3567540   6.4042210  22.3149590
   3.4305120   5.7933010  34.8901560   3.2912890   6.6655810  35.2588960
   2.5486480   5.4505820  34.7449500   9.7534500  10.7108880  26.1966690
  10.1930410  11.4533210  25.7822080   9.6921390  10.9535450  27.1205650
   5.2285470  11.7354710  37.0986710   5.2000900  12.1397660  36.2315140
   5.0650440  10.8065070  36.9358310  17.1800290  12.5181810  38.3950880
  17.6560010  12.9964700  39.0739960  17.8007450  12.4499300  37.6696380
  16.5833540   9.7094660  35.5550890  16.7096600   9.4706540  34.6368070
  16.6254920   8.8779200  36.0272970  10.4450280  13.4122660  34.1245700
  10.9594950  13.3230670  34.9268130   9.6019360  13.7582360  34.4173610
  12.4204680  13.6978000  23.5529700  12.2605820  13.4080940  24.4511530
  12.2551390  12.9218130  23.0174930   4.8993060  13.4776530  25.3301320
   4.7235540  12.5612070  25.1169120   4.0448800  13.8363820  25.5699120
  12.1230810  11.2065560  22.1127700  11.4295970  11.2042850  21.4529980
  12.8653670  10.7824880  21.6821870  11.6880740  12.8328270  26.1876190
  12.1437690  12.0517650  26.5014810  12.0273260  13.5435090  26.7317370
  13.4976380   1.8227960  35.1159480  12.6469970   1.5233710  35.4368550
  13.3378170   2.0669970  34.2043300  10.5926090   3.3229710  37.2158270
  10.9179500   2.4893460  36.8760500  11.3806420   3.8458230  37.3636600
   4.0016280   2.8584060  26.1108750   3.7757200   2.6421230  27.0155370
   3.2208810   3.2912520  25.7654720  11.2314040   2.8647430  24.7099400
  10.6322930   3.5883230  24.5263020  11.7793650   2.8024210  23.9275850
   6.4415490   3.7569640  36.7769020   6.3459090   2.8164370  36.6269420
   7.2847470   3.9784710  36.3817090  10.4234050   4.0916720  30.8353460
   9.6915170   4.6003530  31.1843560  10.0258390   3.2746700  30.5342240
   6.9231590   1.7683000  22.2312710   7.0444410   1.7269480  23.1798530
   6.5380100   2.6307150  22.0759440   5.9353090   4.0784140  21.6296010
   5.3669990   3.6302390  21.0031920   6.6442090   4.4376920  21.0961160
   7.1619410   4.8272700  30.9871360   7.5289540   4.3531270  31.7332700
   6.9724470   5.7014270  31.3279700   4.9518780   3.8681340  33.3055570
   4.6475850   4.7473320  33.5305930   5.9065240   3.9281130  33.3413010
   3.4800570   8.0742330  23.9022420   2.7062830   7.5339950  23.7421140
   4.2095200   7.5548940  23.5640180  14.2388550   7.0707690  29.6948810
  14.9587670   7.5662980  29.3044920  14.0370370   6.3925580  29.0502680
   9.6207350   7.1416750  35.5817810   9.5544660   6.2212420  35.3275400
   8.9912490   7.2392190  36.2962450  12.4146880   2.8365300  22.1340360
  13.3026500   3.1482530  21.9591700  12.3851970   1.9637550  21.7420940
   3.5237970   7.7422710  27.5401230   4.0416640   6.9390970  27.4858120
   3.0721990   7.6801850  28.3818060   8.4107470   9.0088990  22.8128530
   8.7523170   9.7531220  22.3171850   7.5820180   9.3220110  23.1753360
   4.2095630   5.1668320  37.3366480   3.9095770   5.3125500  36.4394300
   4.9806870   4.6073610  37.2439870   9.5524080   9.9637320  35.3321610
   9.5668620   9.0318280  35.1140520   8.8449180  10.0497080  35.9711380
  14.6861150   4.1477140  21.6020220  14.6024870   4.5791360  20.7516660
  15.4055340   4.6075490  22.0347040  15.7635290   6.6044660  34.6790190
  15.0383480   7.1973440  34.4819580  16.2910750   6.5968200  33.8803560
  15.7148400  11.0019400  24.3302350  15.0724560  10.3475020  24.6046070
  15.3279060  11.4074490  23.5543020  11.2934880   8.3304830  28.1774040
  11.6458700   7.7332960  27.5175410  10.4097210   8.0049060  28.3482290
   7.3798160   9.0902520  25.5844450   8.0669290   9.6371730  25.9652040
   6.5930580   9.6343250  25.6194060   6.6825370   6.0948550  25.1969810
   7.1388150   6.9053800  25.4230000   6.3313580   5.7771690  26.0288300
   8.9857980  11.6054890  32.4262110   9.6300200  11.8114270  33.1035530
   9.3487420  10.8443290  31.9732960  10.2590060   9.6087240  31.1439560
  10.9012290   8.9080400  31.2571730  10.7839410  10.3885680  30.9636450
  14.1045780   9.8935860  20.8678700  13.8783360   9.1766300  21.4603340
  13.7141980   9.6448300  20.0300450  12.0327680  10.4082140  34.3475620
  12.3683920  10.9948830  35.0253540  11.1128020  10.2774850  34.5773410
  13.6862030   7.8107800  22.5292860  13.3983730   8.2720490  23.3170740
  14.4814200   7.3505570  22.7977080   7.8616260  10.4573470  37.5163680
   7.5413130   9.7382710  38.0609370   7.1874620  11.1328540  37.5899740
   5.9030430  11.3033920  22.4596830   5.8940530  12.0363610  21.8441340
   4.9828790  11.0565500  22.5523790   8.8890030  11.3662160  21.1222020
   8.9902010  11.1626150  20.1924000   7.9891770  11.1120440  21.3269800
   8.0371850   3.3439220  33.1038450   8.5357100   3.8185040  33.7690300
   8.1794800   2.4202740  33.3108480   7.5308140  13.8848480  25.8169690
   7.7849640  13.8469870  24.8949060   6.5820620  13.7581810  25.8097940
  13.5360720   4.8040360  27.3928200  12.5950860   4.8190590  27.5675890
  13.8504790   4.0176320  27.8388500   3.5142360   6.4859960  20.9532160
   4.2805630   6.3741320  21.5157590   3.5917050   5.7897930  20.3008930
   2.2089120   3.9185030  21.6365050   2.2892710   2.9712540  21.7482450
   3.1008870   4.2491910  21.7425710  15.5386300  11.9749210  29.0682460
  15.6633720  12.7980380  29.5406270  16.4051860  11.7639940  28.7206610
   3.0103830  14.0680420  28.7399590   3.7466310  13.5195880  29.0108160
   3.3944750  14.9336430  28.6005580   2.0162110  13.2526490  37.9285170
   2.8174840  13.5738540  38.3420570   1.5013930  12.8922070  38.6505080
   6.1206140  13.2410730  20.5625160   6.9134750  13.5299560  20.1106950
   5.6010490  12.8102900  19.8837640  10.8526740   9.3606360  37.8760580
  10.2464900   9.3837960  37.1356330  10.5480850   8.6289400  38.4127830
  12.2827110  13.0886650  36.4869990  13.2348860  13.0044670  36.4370230
  12.1355330  13.7528360  37.1603780  15.1736310  12.4680860  21.9861900
  14.8877820  12.0546000  21.1716080  14.9755860  13.3968570  21.8662420
   6.6383540   8.4614140  20.4267510   6.5334180   7.8466490  21.1528890
   6.4707760   7.9380030  19.6430520   6.7897860   7.1470940  36.4056740
   6.0243530   7.7155940  36.3211410   6.9713820   6.8547150  35.5124970
   9.8786270   7.5234170  21.0309500   9.3296370   7.9703470  21.6752240
  10.5005530   7.0183420  21.5547170  13.9321210   8.8776270  36.9631760
  14.6730680   9.2152030  36.4599220  13.1693890   9.0468330  36.4101530
   1.7683000   3.8829540  37.7671290   1.8088340   3.5843410  38.6756520
   2.6228500   4.2837150  37.6078810   5.5461390   6.4825090  22.9274800
   5.9677810   6.3164960  23.7706190   5.6712230   5.6725320  22.4329940
   3.7088810   2.4621640  35.7345780   3.1785270   1.9712590  35.1069120
   4.3776880   2.8905840  35.2003710   8.0589030   5.5062700  20.1751900
   8.5794690   4.7911720  19.8093050   8.7057430   6.1448570  20.4752410
  12.6066870   6.9291100  35.4986970  13.0207890   7.0836180  36.3477390
  11.6717870   7.0546320  35.6612750  13.0789040   4.2687260  37.5026120
  13.6609810   3.5139580  37.4146600  13.2550810   4.7994700  36.7257600
   7.3682100   6.8811580  33.4682900   7.7870210   7.7244310  33.2959140
   6.4490730   7.0183620  33.2389680   9.7046000   4.6127760  34.8520740
   9.8242210   4.0168900  35.5915580  10.5640000   4.6497450  34.4322040
  12.0433900   5.1664950  33.4283250  11.5169120   5.6907570  32.8248390
  12.3865240   5.7992340  34.0592980   4.4420290   2.5558320  19.8732960
   4.2409350   1.6925680  20.2346300   4.2712340   2.4691680  18.9354560
   5.2189520  13.1864590  34.5840630   4.6810610  13.9110650  34.2649330
   5.4723480  12.7094930  33.7937970   8.0751730  14.4215800  34.8427280
   8.0010430  15.3250940  35.1499650   7.1730570  14.1027700  34.8149350
   8.6237060  13.5874310  22.4653640   9.5187850  13.9259280  22.4872400
   8.6554690  12.8653720  21.8377920   2.2633220   8.9601360  20.6940640
   2.7008090   9.5031030  21.3498220   2.7480950   8.1348310  20.7036980
   4.0740940  10.0799400  25.8062870   3.7736480   9.9564370  26.7066780
   3.9678430   9.2207990  25.3978600  15.6031410  12.1177980  35.1719840
  15.0033400  12.1770540  34.4283760  15.7325310  11.1782960  35.3016690
  16.8432860   9.8595800  20.5089550  16.0125820   9.9272450  20.9796780
  17.0204690  10.7499920  20.2056410  16.2989320   6.6043280  23.0123750
  17.0608230   7.1739930  23.1183440  16.3143690   6.0370480  23.7832060
  17.3049290   7.4593380  27.8565680  17.6758120   6.6760700  27.4501650
  17.9451220   8.1482480  27.6782980  14.2883050   8.8429960  33.2696000
  13.4742890   9.2727120  33.5321790  14.6957250   9.4548370  32.6565050
  16.3508490   6.8977650  20.1696270  16.6257330   7.8056530  20.0415490
  16.1619230   6.8340180  21.1058260  16.2473830   4.8346640  25.1625700
  15.8717430   4.0674570  24.7306990  15.5176950   5.2169340  25.6500630
  15.6373450   3.9818160  34.7965220  15.4059540   3.7530910  33.8963170
  15.8978000   4.9017710  34.7510110  15.5224790   3.0604130  28.4632940
  16.0462270   2.5666780  27.8323110  16.1084210   3.1954490  29.2080510
  15.7014510   3.1444000  31.9852490  14.7517220   3.1107540  32.0997480
  15.8827520   4.0544110  31.7502260  15.0124760   2.3177480  24.4025350
  15.5083880   2.0848350  25.1874230  14.8140830   1.4789320  23.9862990
  14.3459100  13.5948560  26.7964270  14.9418170  13.2733130  26.1198690
  14.6037250  13.1220380  27.5877540   2.2521670  10.0266470  36.9454900
   2.2091300   9.6559380  37.8269360   2.3832680  10.9644040  37.0856720
   5.9527700  11.5826060  32.5464620   5.7119060  11.8500620  31.6595140
   6.8930340  11.7531790  32.6015480  17.2131860  13.6020440  33.3475260
  16.7190140  13.9989310  32.6302390  16.6045150  12.9769650  33.7412540
   2.0909700  12.9728720  34.0652680   1.4970020  12.8413420  34.8042720
   2.0833540  12.1366860  33.5994780  14.8971310  14.2443860  30.6262000
  14.4374280  14.9959670  30.2520020  14.2683770  13.5250330  30.5676800
   5.3267030  12.5532100  29.8010130   5.8432050  11.9419460  29.2758390
   5.9764410  13.0560880  30.2921140   8.0662530  13.4440590  30.6279110
   8.3540340  13.1894890  29.7512120   8.5785750  12.8917950  31.2184680
   8.1334890  14.3656690  37.9947310   9.0602200  14.1300960  38.0383270
   8.1185320  15.1928690  37.5133340  16.3679950  13.9082260  24.9921560
  16.5432140  13.2220000  24.3482480  15.6701520  14.4329310  24.5998230
   4.2107600  14.2977100  22.5456870   4.9426420  14.0136380  21.9980760
   4.4701270  14.0590380  23.4356250   3.3722390  10.4141830  22.5503200
   2.7431270  10.8826930  23.0989030   3.4870220   9.5691050  22.9849390
  14.7012450  13.5926550  37.8188350  15.4937770  13.0975780  37.6114310
  14.9945600  14.2716690  38.4263960  10.8272110   4.4647490   8.7004400
  10.7466160   3.5502100   8.4296110  10.4136530   4.9614560   7.9944110
   8.9590150   6.2426510  10.5813670   8.1832250   5.7626950  10.8712240
   9.6103080   5.5632160  10.4069830   2.9755980   6.5546320  11.4589430
   2.1440860   6.2995030  11.8585940   3.5836960   6.6257090  12.1947350
  12.9797580  10.6486700   9.3612800  12.5179110   9.8773940   9.6899970
  13.7923130  10.6752770   9.8665250   2.9557240  10.5886410  11.6547450
   3.2585280   9.6984150  11.4757670   3.7000830  11.1456630  11.4269700
   9.2060890  12.9344710   8.9816790   8.5872330  13.3902210   8.4111230
  10.0612670  13.0896170   8.5806490   8.3999140   8.9183700  10.5883830
   8.3307420   7.9773640  10.4272960   9.1619000   9.0085110  11.1606400
   5.4017050   3.0666080  10.6095380   5.9095270   3.5647050  11.2500400
   5.9330290   2.2901280  10.4334740  10.0724240   7.8183950   6.3748700
   9.4541510   8.2833400   5.8111420  10.5847490   8.5111430   6.7918210
   4.9356000   7.3459820  13.0532300   4.6025380   7.9728740  13.6953370
   5.1122680   7.8721700  12.2733970   4.1475100   9.3140620  14.8681480
   4.7649100   9.9891700  14.5865930   3.2868220   9.7228600  14.7768980
  15.0652690  10.7780030  12.7836120  14.3816210  11.4479140  12.7752790
  15.6046980  10.9760680  12.0180980  12.6011430  12.6224160  11.4981300
  12.6138590  12.2186450  10.6303560  12.0486650  13.3971450  11.3942730
  13.8956850   9.3440380   6.5871470  13.7853180   8.4014710   6.7120890
  13.8925100   9.7056020   7.4734230  11.9996870   7.5254000  12.8263910
  12.4165660   7.3114110  11.9917370  12.7236690   7.7826790  13.3972530
   9.4377130   4.9705700   5.9433960   8.5106410   4.9043080   6.1722430
   9.5901950   5.9085830   5.8289200  15.9458970   5.9241220  12.9180150
  15.1177600   5.9934310  12.4430280  16.5409450   6.5095530  12.4495980
  13.4674420   6.5326000   6.4469210  12.8486840   6.1945550   5.7995510
  13.4498870   5.8885760   7.1548400  12.9100980   2.7110540  13.8635020
  12.4972160   3.5364250  14.1175010  12.1776930   2.1255580  13.6711380
   5.0433770   5.4970440   8.7253690   4.6390770   4.7847690   8.2299590
   5.1296890   5.1523680   9.6141730   5.5115470   9.1838000  10.8892900
   5.2143760   8.5783470  10.2100680   6.4615290   9.2215310  10.7782260
   3.7562390   2.2713650  12.5052730   4.3076980   2.3808990  11.7305980
   4.2705900   2.6451250  13.2207960  13.6001080  12.7569870  14.5516000
  13.1231640  13.5642060  14.3588610  12.9162870  12.1048200  14.7042210
   4.6033900   8.9219690  17.5400700   3.7062430   9.1459660  17.7874100
   4.6286770   9.0454630  16.5912100  11.6439120   5.7712810   3.4541960
  12.0832400   4.9335240   3.3079780  12.3567540   6.4042210   3.5406100
   3.4305120   5.7933010  16.1158070   3.2912890   6.6655810  16.4845470
   2.5486480   5.4505820  15.9706010   9.7534500  10.7108880   7.4223200
  10.1930410  11.4533210   7.0078590   9.6921390  10.9535450   8.3462160
   5.2285470  11.7354710  18.3243220   5.2000900  12.1397660  17.4571650
   5.0650440  10.8065070  18.1614820  17.1800290  12.5181810  19.6207390
  17.6560010  12.9964700  20.2996470  17.8007450  12.4499300  18.8952890
  16.5833540   9.7094660  16.7807400  16.7096600   9.4706540  15.8624580
  16.6254920   8.8779200  17.2529480  10.4450280  13.4122660  15.3502210
  10.9594950  13.3230670  16.1524640   9.6019360  13.7582360  15.6430120
  12.4204680  13.6978000   4.7786210  12.2605820  13.4080940   5.6768040
  12.2551390  12.9218130   4.2431440   4.8993060  13.4776530   6.5557830
   4.7235540  12.5612070   6.3425630   4.0448800  13.8363820   6.7955630
  12.1230810  11.2065560   3.3384210  11.4295970  11.2042850   2.6786490
  12.8653670  10.7824880   2.9078380  11.6880740  12.8328270   7.4132700
  12.1437690  12.0517650   7.7271320  12.0273260  13.5435090   7.9573880
  13.4976380   1.8227960  16.3415990  12.6469970   1.5233710  16.6625060
  13.3378170   2.0669970  15.4299810  10.5926090   3.3229710  18.4414780
  10.9179500   2.4893460  18.1017010  11.3806420   3.8458230  18.5893110
   4.0016280   2.8584060   7.3365260   3.7757200   2.6421230   8.2411880
   3.2208810   3.2912520   6.9911230  11.2314040   2.8647430   5.9355910
  10.6322930   3.5883230   5.7519530  11.7793650   2.8024210   5.1532360
   6.4415490   3.7569640  18.0025530   6.3459090   2.8164370  17.8525930
   7.2847470   3.9784710  17.6073600  10.4234050   4.0916720  12.0609970
   9.6915170   4.6003530  12.4100070  10.0258390   3.2746700  11.7598750
   6.9231590   1.7683000   3.4569220   7.0444410   1.7269480   4.4055040
   6.5380100   2.6307150   3.3015950   5.9353090   4.0784140   2.8552520
   5.3669990   3.6302390   2.2288430   6.6442090   4.4376920   2.3217670
   7.1619410   4.8272700  12.2127870   7.5289540   4.3531270  12.9589210
   6.9724470   5.7014270  12.5536210   4.9518780   3.8681340  14.5312080
   4.6475850   4.7473320  14.7562440   5.9065240   3.9281130  14.5669520
   3.4800570   8.0742330   5.1278930   2.7062830   7.5339950   4.9677650
   4.2095200   7.5548940   4.7896690  14.2388550   7.0707690  10.9205320
  14.9587670   7.5662980  10.5301430  14.0370370   6.3925580  10.2759190
   9.6207350   7.1416750  16.8074320   9.5544660   6.2212420  16.5531910
   8.9912490   7.2392190  17.5218960  12.4146880   2.8365300   3.3596870
  13.3026500   3.1482530   3.1848210  12.3851970   1.9637550   2.9677450
   3.5237970   7.7422710   8.7657740   4.0416640   6.9390970   8.7114630
   3.0721990   7.6801850   9.6074570   8.4107470   9.0088990   4.0385040
   8.7523170   9.7531220   3.5428360   7.5820180   9.3220110   4.4009870
   4.2095630   5.1668320  18.5622990   3.9095770   5.3125500  17.6650810
   4.9806870   4.6073610  18.4696380   9.5524080   9.9637320  16.5578120
   9.5668620   9.0318280  16.3397030   8.8449180  10.0497080  17.1967890
  14.6861150   4.1477140   2.8276730  14.6024870   4.5791360   1.9773170
  15.4055340   4.6075490   3.2603550  15.7635290   6.6044660  15.9046700
  15.0383480   7.1973440  15.7076090  16.2910750   6.5968200  15.1060070
  15.7148400  11.0019400   5.5558860  15.0724560  10.3475020   5.8302580
  15.3279060  11.4074490   4.7799530  11.2934880   8.3304830   9.4030550
  11.6458700   7.7332960   8.7431920  10.4097210   8.0049060   9.5738800
   7.3798160   9.0902520   6.8100960   8.0669290   9.6371730   7.1908550
   6.5930580   9.6343250   6.8450570   6.6825370   6.0948550   6.4226320
   7.1388150   6.9053800   6.6486510   6.3313580   5.7771690   7.2544810
   8.9857980  11.6054890  13.6518620   9.6300200  11.8114270  14.3292040
   9.3487420  10.8443290  13.1989470  10.2590060   9.6087240  12.3696070
  10.9012290   8.9080400  12.4828240  10.7839410  10.3885680  12.1892960
  12.0327680  10.4082140  15.5732130  12.3683920  10.9948830  16.2510050
  11.1128020  10.2774850  15.8029920  13.6862030   7.8107800   3.7549370
  13.3983730   8.2720490   4.5427250  14.4814200   7.3505570   4.0233590
   7.8616260  10.4573470  18.7420190   7.5413130   9.7382710  19.2865880
   7.1874620  11.1328540  18.8156250   5.9030430  11.3033920   3.6853340
   5.8940530  12.0363610   3.0697850   4.9828790  11.0565500   3.7780300
   8.0371850   3.3439220  14.3294960   8.5357100   3.8185040  14.9946810
   8.1794800   2.4202740  14.5364990   7.5308140  13.8848480   7.0426200
   7.7849640  13.8469870   6.1205570   6.5820620  13.7581810   7.0354450
  13.5360720   4.8040360   8.6184710  12.5950860   4.8190590   8.7932400
  13.8504790   4.0176320   9.0645010   2.2089120   3.9185030   2.8621560
   2.2892710   2.9712540   2.9738960   3.1008870   4.2491910   2.9682220
  15.5386300  11.9749210  10.2938970  15.6633720  12.7980380  10.7662780
  16.4051860  11.7639940   9.9463120   3.0103830  14.0680420   9.9656100
   3.7466310  13.5195880  10.2364670   3.3944750  14.9336430   9.8262090
   2.0162110  13.2526490  19.1541680   2.8174840  13.5738540  19.5677080
   1.5013930  12.8922070  19.8761590  10.8526740   9.3606360  19.1017090
  10.2464900   9.3837960  18.3612840  10.5480850   8.6289400  19.6384340
  12.2827110  13.0886650  17.7126500  13.2348860  13.0044670  17.6626740
  12.1355330  13.7528360  18.3860290  15.1736310  12.4680860   3.2118410
  14.8877820  12.0546000   2.3972590  14.9755860  13.3968570   3.0918930
   6.7897860   7.1470940  17.6313250   6.0243530   7.7155940  17.5467920
   6.9713820   6.8547150  16.7381480   9.8786270   7.5234170   2.2566010
   9.3296370   7.9703470   2.9008750  10.5005530   7.0183420   2.7803680
  13.9321210   8.8776270  18.1888270  14.6730680   9.2152030  17.6855730
  13.1693890   9.0468330  17.6358040   1.7683000   3.8829540  18.9927800
   1.8088340   3.5843410  19.9013030   2.6228500   4.2837150  18.8335320
   5.5461390   6.4825090   4.1531310   5.9677810   6.3164960   4.9962700
   5.6712230   5.6725320   3.6586450   3.7088810   2.4621640  16.9602290
   3.1785270   1.9712590  16.3325630   4.3776880   2.8905840  16.4260220
  12.6066870   6.9291100  16.7243480  13.0207890   7.0836180  17.5733900
  11.6717870   7.0546320  16.8869260  13.0789040   4.2687260  18.7282630
  13.6609810   3.5139580  18.6403110  13.2550810   4.7994700  17.9514110
   7.3682100   6.8811580  14.6939410   7.7870210   7.7244310  14.5215650
   6.4490730   7.0183620  14.4646190   9.7046000   4.6127760  16.0777250
   9.8242210   4.0168900  16.8172090  10.5640000   4.6497450  15.6578550
  12.0433900   5.1664950  14.6539760  11.5169120   5.6907570  14.0504900
  12.3865240   5.7992340  15.2849490   5.2189520  13.1864590  15.8097140
   4.6810610  13.9110650  15.4905840   5.4723480  12.7094930  15.0194480
   8.0751730  14.4215800  16.0683790   8.0010430  15.3250940  16.3756160
   7.1730570  14.1027700  16.0405860   8.6237060  13.5874310   3.6910150
   9.5187850  13.9259280   3.7128910   8.6554690  12.8653720   3.0634430
   2.2633220   8.9601360   1.9197150   2.7008090   9.5031030   2.5754730
   2.7480950   8.1348310   1.9293490   4.0740940  10.0799400   7.0319380
   3.7736480   9.9564370   7.9323290   3.9678430   9.2207990   6.6235110
  15.6031410  12.1177980  16.3976350  15.0033400  12.1770540  15.6540270
  15.7325310  11.1782960  16.5273200  16.2989320   6.6043280   4.2380260
  17.0608230   7.1739930   4.3439950  16.3143690   6.0370480   5.0088570
  17.3049290   7.4593380   9.0822190  17.6758120   6.6760700   8.6758160
  17.9451220   8.1482480   8.9039490  14.2883050   8.8429960  14.4952510
  13.4742890   9.2727120  14.7578300  14.6957250   9.4548370  13.8821560
  16.2473830   4.8346640   6.3882210  15.8717430   4.0674570   5.9563500
  15.5176950   5.2169340   6.8757140  15.6373450   3.9818160  16.0221730
  15.4059540   3.7530910  15.1219680  15.8978000   4.9017710  15.9766620
  15.5224790   3.0604130   9.6889450  16.0462270   2.5666780   9.0579620
  16.1084210   3.1954490  10.4337020  15.7014510   3.1444000  13.2109000
  14.7517220   3.1107540  13.3253990  15.8827520   4.0544110  12.9758770
  15.0124760   2.3177480   5.6281860  15.5083880   2.0848350   6.4130740
  14.8140830   1.4789320   5.2119500  14.3459100  13.5948560   8.0220780
  14.9418170  13.2733130   7.3455200  14.6037250  13.1220380   8.8134050
   2.2521670  10.0266470  18.1711410   2.2091300   9.6559380  19.0525870
   2.3832680  10.9644040  18.3113230   5.9527700  11.5826060  13.7721130
   5.7119060  11.8500620  12.8851650   6.8930340  11.7531790  13.8271990
  17.2131860  13.6020440  14.5731770  16.7190140  13.9989310  13.8558900
  16.6045150  12.9769650  14.9669050   2.0909700  12.9728720  15.2909190
   1.4970020  12.8413420  16.0299230   2.0833540  12.1366860  14.8251290
  14.8971310  14.2443860  11.8518510  14.4374280  14.9959670  11.4776530
  14.2683770  13.5250330  11.7933310   5.3267030  12.5532100  11.0266640
   5.8432050  11.9419460  10.5014900   5.9764410  13.0560880  11.5177650
   8.0662530  13.4440590  11.8535620   8.3540340  13.1894890  10.9768630
   8.5785750  12.8917950  12.4441190   8.1334890  14.3656690  19.2203820
   9.0602200  14.1300960  19.2639780   8.1185320  15.1928690  18.7389850
  16.3679950  13.9082260   6.2178070  16.5432140  13.2220000   5.5738990
  15.6701520  14.4329310   5.8254740   4.2107600  14.2977100   3.7713380
   4.9426420  14.0136380   3.2237270   4.4701270  14.0590380   4.6612760
   3.3722390  10.4141830   3.7759710   2.7431270  10.8826930   4.3245540
   3.4870220   9.5691050   4.2105900  14.7012450  13.5926550  19.0444860
  15.4937770  13.0975780  18.8370820  14.9945600  14.2716690  19.6520470
  91.3088850  85.7840660  95.5939590  90.0000000  90.0000000  90.0000000
