; File Toluene_maple.top was generated by MAPLE parmfit
; This is a standalone topology file
[ defaults ]
; nbfunc        comb-rule       gen-pairs       fudgeLJ fudgeQQ
1               2               yes             0.5     0.83333333

[ atomtypes ]
; name    at.num    mass    charge ptype  sigma      epsilon
c3              6   12.011000  0.00000000  A    0.33977095     0.4510352
ca              6   12.011000  0.00000000  A    0.33152123     0.4133792
hc              1    1.008000  0.00000000  A    0.26001770     0.0870272
ha              1    1.008000  0.00000000  A    0.26254785     0.0673624

[ moleculetype ]
; Name            nrexcl
MOL             3

[ atoms ]
; nr       type  resnr residue  atom   cgnr    charge       mass
; residue    1 MOL rtp MOL q 0.0
    1         c3      1     MOL     C7      1  -0.05380000   12.011000
    2         ca      1     MOL     C1      2  -0.07730000   12.011000
    3         ca      1     MOL     C2      3  -0.11300000   12.011000
    4         ca      1     MOL     C3      4  -0.10850000   12.011000
    5         ca      1     MOL     C4      5  -0.11700000   12.011000
    6         ca      1     MOL     C5      6  -0.10850000   12.011000
    7         ca      1     MOL     C6      7  -0.11300000   12.011000
    8         hc      1     MOL    H71      8  0.04336700    1.008000
    9         hc      1     MOL    H72      9  0.04336700    1.008000
   10         hc      1     MOL    H73     10  0.04336700    1.008000
   11         ha      1     MOL     H2     11  0.11200000    1.008000
   12         ha      1     MOL     H3     12  0.11200000    1.008000
   13         ha      1     MOL     H4     13  0.11200000    1.008000
   14         ha      1     MOL     H5     14  0.11200000    1.008000
   15         ha      1     MOL     H6     15  0.11200000    1.008000

[ bonds ]
; ai     aj funct         c0         c1
     1      2     1     0.15020 216794.608700
     1      8     1     0.10885 299475.979764
     1      9     1     0.10905 294832.246935
     1     10     1     0.10905 294842.134020
     2      3     1     0.13889 323719.552580
     2      7     1     0.13927 314968.260171
     3      4     1     0.13875 338668.788038
     3     11     1     0.10835 314546.467942
     4      5     1     0.13855 337838.679883
     4     12     1     0.10822 318829.074742
     5      6     1     0.13887 331272.636106
     5     13     1     0.10809 321483.907102
     6      7     1     0.13846 341132.520279
     6     14     1     0.10824 318420.483337
     7     15     1     0.10840 313565.037654

[ pairs ]
; ai     aj funct
     1      4     1
     1      6     1
     1     11     1
     1     15     1
     2      5     1
     2     12     1
     2     14     1
     3      6     1
     3      8     1
     3      9     1
     3     10     1
     3     13     1
     3     15     1
     4      7     1
     4     14     1
     5     11     1
     5     15     1
     6     12     1
     7      8     1
     7      9     1
     7     10     1
     7     11     1
     7     13     1
    11     12     1
    12     13     1
    13     14     1
    14     15     1

[ angles ]
; ai     aj     ak funct         c0         c1
     2      1      8     1  110.877224    439.780327
     2      1      9     1  110.924329    462.688371
     2      1     10     1  110.924284    454.896961
     8      1      9     1  108.150436    273.983569
     8      1     10     1  108.150738    251.219128
     9      1     10     1  107.687616    253.457073
     1      2      3     1  120.802805    813.259759
     1      2      7     1  120.527212    814.749896
     3      2      7     1  118.669983    954.451275
     2      3      4     1  120.827064    965.747793
     2      3     11     1  119.176827    279.632432
     4      3     11     1  119.996109    283.815162
     3      4      5     1  120.028623    955.771072
     3      4     12     1  119.817330    287.179768
     5      4     12     1  120.154047    282.144736
     4      5      6     1  119.653233    903.575773
     4      5     13     1  120.170785    276.339044
     6      5     13     1  120.175982    276.516942
     5      6      7     1  120.086135    909.073131
     5      6     14     1  119.966187    279.236777
     7      6     14     1  119.947679    279.174251
     2      7      6     1  120.734962    898.888087
     2      7     15     1  119.326365    280.839015
     6      7     15     1  119.938673    281.318487

[ dihedrals ]
; ai     aj     ak     al funct         c0         c1    mult
     3      2      1      8     1   0.0092452   1.3666217    1
     3      2      1      8     1-179.9939996   1.4200823    2
     3      2      1      8     1 107.5682009   1.2277054    3
     3      2      1      8     1  -0.1069012   0.9386672    4
     7      2      1      8     1-179.9907541   1.3669519    1
     7      2      1      8     1-179.9939965   1.4208738    2
     7      2      1      8     1 107.8966062   1.2283776    3
     7      2      1      8     1  -0.1063331   0.9282240    4
     3      2      1      9     1   0.0092452   1.3666217    1
     3      2      1      9     1-179.9939996   1.4200823    2
     3      2      1      9     1 107.5682009   1.2277054    3
     3      2      1      9     1  -0.1069012   0.9386672    4
     7      2      1      9     1-179.9907541   1.3669519    1
     7      2      1      9     1-179.9939965   1.4208738    2
     7      2      1      9     1 107.8966062   1.2283776    3
     7      2      1      9     1  -0.1063331   0.9282240    4
     3      2      1     10     1   0.0092452   1.3666217    1
     3      2      1     10     1-179.9939996   1.4200823    2
     3      2      1     10     1 107.5682009   1.2277054    3
     3      2      1     10     1  -0.1069012   0.9386672    4
     7      2      1     10     1-179.9907541   1.3669519    1
     7      2      1     10     1-179.9939965   1.4208738    2
     7      2      1     10     1 107.8966062   1.2283776    3
     7      2      1     10     1  -0.1063331   0.9282240    4
     1      2      3      4     1 180.0000000  15.1670000    2
     1      2      3     11     1 180.0000000  15.1670000    2
     4      3      2      7     1 180.0000000  15.1670000    2
     7      2      3     11     1 180.0000000  15.1670000    2
     1      2      7      6     1 180.0000000  15.1670000    2
     1      2      7     15     1 180.0000000  15.1670000    2
     3      2      7      6     1 180.0000000  15.1670000    2
     3      2      7     15     1 180.0000000  15.1670000    2
     2      3      4      5     1 180.0000000  15.1670000    2
     2      3      4     12     1 180.0000000  15.1670000    2
     5      4      3     11     1 180.0000000  15.1670000    2
    11      3      4     12     1 180.0000000  15.1670000    2
     3      4      5      6     1 180.0000000  15.1670000    2
     3      4      5     13     1 180.0000000  15.1670000    2
     6      5      4     12     1 180.0000000  15.1670000    2
    12      4      5     13     1 180.0000000  15.1670000    2
     4      5      6      7     1 180.0000000  15.1670000    2
     4      5      6     14     1 180.0000000  15.1670000    2
     7      6      5     13     1 180.0000000  15.1670000    2
    13      5      6     14     1 180.0000000  15.1670000    2
     2      7      6      5     1 180.0000000  15.1670000    2
     5      6      7     15     1 180.0000000  15.1670000    2
     2      7      6     14     1 180.0000000  15.1670000    2
    14      6      7     15     1 180.0000000  15.1670000    2
     1      3      2      7     4 180.0000000   4.6024000    2
     2      4      3     11     4 180.0000000   4.6024000    2
     3      5      4     12     4 180.0000000   4.6024000    2
     4      6      5     13     4 180.0000000   4.6024000    2
     5      7      6     14     4 180.0000000   4.6024000    2
     2      6      7     15     4 180.0000000   4.6024000    2

[ system ]
; Name
Toluene_maple

[ molecules ]
; Compound       #mols
MOL                 1

