; File Toluene_maple.top was generated by MAPLE parmfit
; This is a standalone topology file
[ defaults ]
; nbfunc        comb-rule       gen-pairs       fudgeLJ fudgeQQ
1               2               yes             0.5     0.83333333

[ atomtypes ]
; name    at.num    mass    charge ptype  sigma      epsilon
c3              6   12.011000  0.00000000  A    0.33977095     0.4510352
ca              6   12.011000  0.00000000  A    0.33152123     0.4133792
hc              1    1.008000  0.00000000  A    0.26001770     0.0870272
ha              1    1.008000  0.00000000  A    0.26254785     0.0673624

[ moleculetype ]
; Name            nrexcl
MOL             3

[ atoms ]
; nr       type  resnr residue  atom   cgnr    charge       mass
; residue    1 MOL rtp MOL q 0.0
    1         c3      1     MOL     C7      1  -0.05380000   12.011000
    2         ca      1     MOL     C1      2  -0.07730000   12.011000
    3         ca      1     MOL     C2      3  -0.11300000   12.011000
    4         ca      1     MOL     C3      4  -0.10850000   12.011000
    5         ca      1     MOL     C4      5  -0.11700000   12.011000
    6         ca      1     MOL     C5      6  -0.10850000   12.011000
    7         ca      1     MOL     C6      7  -0.11300000   12.011000
    8         hc      1     MOL    H71      8  0.04336700    1.008000
    9         hc      1     MOL    H72      9  0.04336700    1.008000
   10         hc      1     MOL    H73     10  0.04336700    1.008000
   11         ha      1     MOL     H2     11  0.11200000    1.008000
   12         ha      1     MOL     H3     12  0.11200000    1.008000
   13         ha      1     MOL     H4     13  0.11200000    1.008000
   14         ha      1     MOL     H5     14  0.11200000    1.008000
   15         ha      1     MOL     H6     15  0.11200000    1.008000

[ bonds ]
; ai     aj funct         c0         c1
     1      2     1     0.15020 216825.677710
     1      8     1     0.10885 299475.217536
     1      9     1     0.10905 294832.345124
     1     10     1     0.10905 294840.310263
     2      3     1     0.13889 323723.963037
     2      7     1     0.13927 314985.613121
     3      4     1     0.13875 338647.206658
     3     11     1     0.10835 314537.036906
     4      5     1     0.13855 337822.350346
     4     12     1     0.10822 318832.673092
     5      6     1     0.13887 331285.398599
     5     13     1     0.10809 321486.946493
     6      7     1     0.13846 341189.746439
     6     14     1     0.10824 318435.150694
     7     15     1     0.10840 313533.677809

[ pairs ]
; ai     aj funct
     1      4     1
     1      6     1
     1     11     1
     1     15     1
     2      5     1
     2     12     1
     2     14     1
     3      6     1
     3      8     1
     3      9     1
     3     10     1
     3     13     1
     3     15     1
     4      7     1
     4     14     1
     5     11     1
     5     15     1
     6     12     1
     7      8     1
     7      9     1
     7     10     1
     7     11     1
     7     13     1
    11     12     1
    12     13     1
    13     14     1
    14     15     1

[ angles ]
; ai     aj     ak funct         c0         c1
     2      1      8     1  110.876881    434.593386
     2      1      9     1  110.924342    463.918326
     2      1     10     1  110.924328    456.286040
     8      1      9     1  108.150556    272.893263
     8      1     10     1  108.150875    252.180184
     9      1     10     1  107.687661    252.432114
     1      2      3     1  120.803274    815.648124
     1      2      7     1  120.526740    817.202740
     3      2      7     1  118.669986    954.950128
     2      3      4     1  120.827191    965.381823
     2      3     11     1  119.176597    279.897317
     4      3     11     1  119.996212    284.071312
     3      4      5     1  120.028345    954.836546
     3      4     12     1  119.817503    287.229307
     5      4     12     1  120.154152    282.170695
     4      5      6     1  119.653380    902.012327
     4      5     13     1  120.169524    277.684433
     6      5     13     1  120.177096    277.887629
     5      6      7     1  120.085793    909.171168
     5      6     14     1  119.965809    279.700974
     7      6     14     1  119.948399    279.704864
     2      7      6     1  120.735306    899.365854
     2      7     15     1  119.326506    281.831900
     6      7     15     1  119.938188    282.373226

[ dihedrals ]
; ai     aj     ak     al funct         c0         c1    mult
     3      2      1      8     1   0.0093536   1.3633272    1
     3      2      1      8     1-179.9938584   1.4226913    2
     3      2      1      8     1 107.4157976   1.2212571    3
     3      2      1      8     1  -0.1079348   0.9393215    4
     7      2      1      8     1-179.9906457   1.3636575    1
     7      2      1      8     1-179.9938553   1.4234993    2
     7      2      1      8     1 107.7448565   1.2219177    3
     7      2      1      8     1  -0.1073592   0.9288227    4
     3      2      1      9     1   0.0093536   1.3633272    1
     3      2      1      9     1-179.9938584   1.4226913    2
     3      2      1      9     1 107.4157976   1.2212571    3
     3      2      1      9     1  -0.1079348   0.9393215    4
     7      2      1      9     1-179.9906457   1.3636575    1
     7      2      1      9     1-179.9938553   1.4234993    2
     7      2      1      9     1 107.7448565   1.2219177    3
     7      2      1      9     1  -0.1073592   0.9288227    4
     3      2      1     10     1   0.0093536   1.3633272    1
     3      2      1     10     1-179.9938584   1.4226913    2
     3      2      1     10     1 107.4157976   1.2212571    3
     3      2      1     10     1  -0.1079348   0.9393215    4
     7      2      1     10     1-179.9906457   1.3636575    1
     7      2      1     10     1-179.9938553   1.4234993    2
     7      2      1     10     1 107.7448565   1.2219177    3
     7      2      1     10     1  -0.1073592   0.9288227    4
     1      2      3      4     1 180.0000000  15.1670000    2
     1      2      3     11     1 180.0000000  15.1670000    2
     4      3      2      7     1 180.0000000  15.1670000    2
     7      2      3     11     1 180.0000000  15.1670000    2
     1      2      7      6     1 180.0000000  15.1670000    2
     1      2      7     15     1 180.0000000  15.1670000    2
     3      2      7      6     1 180.0000000  15.1670000    2
     3      2      7     15     1 180.0000000  15.1670000    2
     2      3      4      5     1 180.0000000  15.1670000    2
     2      3      4     12     1 180.0000000  15.1670000    2
     5      4      3     11     1 180.0000000  15.1670000    2
    11      3      4     12     1 180.0000000  15.1670000    2
     3      4      5      6     1 180.0000000  15.1670000    2
     3      4      5     13     1 180.0000000  15.1670000    2
     6      5      4     12     1 180.0000000  15.1670000    2
    12      4      5     13     1 180.0000000  15.1670000    2
     4      5      6      7     1 180.0000000  15.1670000    2
     4      5      6     14     1 180.0000000  15.1670000    2
     7      6      5     13     1 180.0000000  15.1670000    2
    13      5      6     14     1 180.0000000  15.1670000    2
     2      7      6      5     1 180.0000000  15.1670000    2
     5      6      7     15     1 180.0000000  15.1670000    2
     2      7      6     14     1 180.0000000  15.1670000    2
    14      6      7     15     1 180.0000000  15.1670000    2
     1      3      2      7     4 180.0000000   4.6024000    2
     2      4      3     11     4 180.0000000   4.6024000    2
     3      5      4     12     4 180.0000000   4.6024000    2
     4      6      5     13     4 180.0000000   4.6024000    2
     5      7      6     14     4 180.0000000   4.6024000    2
     2      6      7     15     4 180.0000000   4.6024000    2

[ system ]
; Name
Toluene_maple

[ molecules ]
; Compound       #mols
MOL                 1

