; File Toluene_maple.top was generated by MAPLE parmfit
; This is a standalone topology file
[ defaults ]
; nbfunc        comb-rule       gen-pairs       fudgeLJ fudgeQQ
1               2               yes             0.5     0.83333333

[ atomtypes ]
; name    at.num    mass    charge ptype  sigma      epsilon
c3              6   12.011000  0.00000000  A    0.33977095     0.4510352
ca              6   12.011000  0.00000000  A    0.33152123     0.4133792
hc              1    1.008000  0.00000000  A    0.26001770     0.0870272
ha              1    1.008000  0.00000000  A    0.26254785     0.0673624

[ moleculetype ]
; Name            nrexcl
MOL             3

[ atoms ]
; nr       type  resnr residue  atom   cgnr    charge       mass
; residue    1 MOL rtp MOL q 0.0
    1         c3      1     MOL     C7      1  -0.05380000   12.011000
    2         ca      1     MOL     C1      2  -0.07730000   12.011000
    3         ca      1     MOL     C2      3  -0.11300000   12.011000
    4         ca      1     MOL     C3      4  -0.10850000   12.011000
    5         ca      1     MOL     C4      5  -0.11700000   12.011000
    6         ca      1     MOL     C5      6  -0.10850000   12.011000
    7         ca      1     MOL     C6      7  -0.11300000   12.011000
    8         hc      1     MOL    H71      8  0.04336700    1.008000
    9         hc      1     MOL    H72      9  0.04336700    1.008000
   10         hc      1     MOL    H73     10  0.04336700    1.008000
   11         ha      1     MOL     H2     11  0.11200000    1.008000
   12         ha      1     MOL     H3     12  0.11200000    1.008000
   13         ha      1     MOL     H4     13  0.11200000    1.008000
   14         ha      1     MOL     H5     14  0.11200000    1.008000
   15         ha      1     MOL     H6     15  0.11200000    1.008000

[ bonds ]
; ai     aj funct         c0         c1
     1      2     1     0.15020 216767.107394
     1      8     1     0.10885 299486.648146
     1      9     1     0.10905 294835.273328
     1     10     1     0.10905 294845.378559
     2      3     1     0.13889 323734.381090
     2      7     1     0.13927 314971.236437
     3      4     1     0.13875 338651.641381
     3     11     1     0.10835 314530.278699
     4      5     1     0.13855 337804.674428
     4     12     1     0.10821 318868.224361
     5      6     1     0.13887 331298.683444
     5     13     1     0.10809 321497.514844
     6      7     1     0.13846 341193.529709
     6     14     1     0.10824 318403.832214
     7     15     1     0.10840 313531.569488

[ pairs ]
; ai     aj funct
     1      4     1
     1      6     1
     1     11     1
     1     15     1
     2      5     1
     2     12     1
     2     14     1
     3      6     1
     3      8     1
     3      9     1
     3     10     1
     3     13     1
     3     15     1
     4      7     1
     4     14     1
     5     11     1
     5     15     1
     6     12     1
     7      8     1
     7      9     1
     7     10     1
     7     11     1
     7     13     1
    11     12     1
    12     13     1
    13     14     1
    14     15     1

[ angles ]
; ai     aj     ak funct         c0         c1
     2      1      8     1  110.877279    445.117354
     2      1      9     1  110.924047    462.394663
     2      1     10     1  110.923817    453.361945
     8      1      9     1  108.150869    274.579447
     8      1     10     1  108.151328    250.345839
     9      1     10     1  107.687320    254.100451
     1      2      3     1  120.802349    812.491984
     1      2      7     1  120.527586    814.013287
     3      2      7     1  118.670065    954.509732
     2      3      4     1  120.826882    965.238740
     2      3     11     1  119.177310    280.058160
     4      3     11     1  119.995808    284.239843
     3      4      5     1  120.028176    956.034777
     3      4     12     1  119.818461    287.432204
     5      4     12     1  120.153364    282.477779
     4      5      6     1  119.653738    907.503316
     4      5     13     1  120.171847    275.640882
     6      5     13     1  120.174415    275.815764
     5      6      7     1  120.085255    910.223737
     5      6     14     1  119.966190    279.572556
     7      6     14     1  119.948555    279.473362
     2      7      6     1  120.735884    898.942748
     2      7     15     1  119.326239    281.552926
     6      7     15     1  119.937876    282.132533

[ dihedrals ]
; ai     aj     ak     al funct         c0         c1    mult
     3      2      1      8     1   0.0093755   1.3675964    1
     3      2      1      8     1-179.9939303   1.4195688    2
     3      2      1      8     1 107.5106469   1.2236601    3
     3      2      1      8     1  -0.1077878   0.9359841    4
     7      2      1      8     1-179.9906239   1.3679343    1
     7      2      1      8     1-179.9939274   1.4203637    2
     7      2      1      8     1 107.8368807   1.2243382    3
     7      2      1      8     1  -0.1071896   0.9250668    4
     3      2      1      9     1   0.0093755   1.3675964    1
     3      2      1      9     1-179.9939303   1.4195688    2
     3      2      1      9     1 107.5106469   1.2236601    3
     3      2      1      9     1  -0.1077878   0.9359841    4
     7      2      1      9     1-179.9906239   1.3679343    1
     7      2      1      9     1-179.9939274   1.4203637    2
     7      2      1      9     1 107.8368807   1.2243382    3
     7      2      1      9     1  -0.1071896   0.9250668    4
     3      2      1     10     1   0.0093755   1.3675964    1
     3      2      1     10     1-179.9939303   1.4195688    2
     3      2      1     10     1 107.5106469   1.2236601    3
     3      2      1     10     1  -0.1077878   0.9359841    4
     7      2      1     10     1-179.9906239   1.3679343    1
     7      2      1     10     1-179.9939274   1.4203637    2
     7      2      1     10     1 107.8368807   1.2243382    3
     7      2      1     10     1  -0.1071896   0.9250668    4
     1      2      3      4     1 180.0000000  15.1670000    2
     1      2      3     11     1 180.0000000  15.1670000    2
     4      3      2      7     1 180.0000000  15.1670000    2
     7      2      3     11     1 180.0000000  15.1670000    2
     1      2      7      6     1 180.0000000  15.1670000    2
     1      2      7     15     1 180.0000000  15.1670000    2
     3      2      7      6     1 180.0000000  15.1670000    2
     3      2      7     15     1 180.0000000  15.1670000    2
     2      3      4      5     1 180.0000000  15.1670000    2
     2      3      4     12     1 180.0000000  15.1670000    2
     5      4      3     11     1 180.0000000  15.1670000    2
    11      3      4     12     1 180.0000000  15.1670000    2
     3      4      5      6     1 180.0000000  15.1670000    2
     3      4      5     13     1 180.0000000  15.1670000    2
     6      5      4     12     1 180.0000000  15.1670000    2
    12      4      5     13     1 180.0000000  15.1670000    2
     4      5      6      7     1 180.0000000  15.1670000    2
     4      5      6     14     1 180.0000000  15.1670000    2
     7      6      5     13     1 180.0000000  15.1670000    2
    13      5      6     14     1 180.0000000  15.1670000    2
     2      7      6      5     1 180.0000000  15.1670000    2
     5      6      7     15     1 180.0000000  15.1670000    2
     2      7      6     14     1 180.0000000  15.1670000    2
    14      6      7     15     1 180.0000000  15.1670000    2
     1      3      2      7     4 180.0000000   4.6024000    2
     2      4      3     11     4 180.0000000   4.6024000    2
     3      5      4     12     4 180.0000000   4.6024000    2
     4      6      5     13     4 180.0000000   4.6024000    2
     5      7      6     14     4 180.0000000   4.6024000    2
     2      6      7     15     4 180.0000000   4.6024000    2

[ system ]
; Name
Toluene_maple

[ molecules ]
; Compound       #mols
MOL                 1

